ITEM: TIMESTEP
1
ITEM: NUMBER OF ATOMS
31
ITEM: BOX BOUNDS pp pp pp
-1.0000000000000000e+01 1.0000000000000000e+01
-1.0000000000000000e+01 1.0000000000000000e+01
-1.0000000000000000e+01 1.0000000000000000e+01
ITEM: ATOMS id element x y z q
10 C 0.69051 -3.73655 0.00019677 -0.0553702
22 H 1.52391 -4.47755 0.00019677 0.0157679
23 H 0.0935097 -3.95085 0.915897 0.0220894
24 H 0.0935097 -3.95105 -0.915503 0.0220843
25 H -3.71049 -0.546245 -0.00020323 0.0132855
26 H -3.44209 0.941855 0.906897 0.0195268
27 H -3.44209 0.942155 -0.906703 0.0195302
1 C -1.59619 0.232055 -3.23e-06 -0.113841
2 C -0.97719 -0.971745 -3.23e-06 0.30044
3 C 0.37111 -1.05625 -3.23e-06 -0.0679134
4 C 1.06251 0.0998548 -0.00010323 -0.000282162
5 C 0.49431 1.31535 -0.00010323 -0.0641703
6 C -0.85109 1.35805 -3.23e-06 0.294066
7 C 1.32611 2.59005 -0.00010323 -0.0033193
8 C 2.85521 2.44975 -3.23e-06 -0.0547898
9 C 1.24701 -2.30895 -3.23e-06 0.00208772
11 C -3.11199 0.385055 -3.23e-06 -0.000880464
12 N -1.42069 2.49345 -0.00010323 -0.601147
13 N -1.69359 -2.01825 9.677e-05 -0.602879
14 H 2.16091 0.0311548 -0.00010323 0.0156724
15 H 1.04731 3.18475 -0.904103 0.0187796
16 H 1.04721 3.18495 0.903697 0.0187751
18 H 3.22101 1.91695 0.907497 0.0179673
19 H 3.22111 1.91685 -0.907403 0.0179671
20 H 1.91091 -2.23475 -0.897603 0.0128589
21 H 1.91101 -2.23465 0.897497 0.0128596
28 H -2.46369 2.59145 -3.23e-06 0.181145
30 H -1.30209 -2.98225 9.677e-05 0.182695
31 H -2.73809 -2.00215 9.677e-05 0.18196
29 H -0.86879 3.38415 -0.00010323 0.179562
17 H 3.34091 3.45325 -3.23e-06 0.0154734
ITEM: TIMESTEP
2
ITEM: NUMBER OF ATOMS
31
ITEM: BOX BOUNDS pp pp pp
-1.0000000000000000e+01 1.0000000000000000e+01
-1.0000000000000000e+01 1.0000000000000000e+01
-1.0000000000000000e+01 1.0000000000000000e+01
ITEM: ATOMS id element x y z q
10 C 0.69051 -3.73655 0.00019677 -0.0553637
22 H 1.52391 -4.47755 0.00019677 0.0157668
23 H 0.0935097 -3.95085 0.915897 0.0220876
24 H 0.0935097 -3.95105 -0.915503 0.0220825
25 H -3.71049 -0.546245 -0.00020323 0.0132838
26 H -3.44209 0.941855 0.906897 0.0195268
27 H -3.44209 0.942155 -0.906703 0.0195302
1 C -1.59619 0.232055 -3.23e-06 -0.113836
2 C -0.97719 -0.971745 -3.23e-06 0.300439
3 C 0.37111 -1.05625 -3.23e-06 -0.0679106
4 C 1.06251 0.0998548 -0.00010323 -0.000276319
5 C 0.49431 1.31535 -0.00010323 -0.064177
6 C -0.85109 1.35805 -3.23e-06 0.294064
7 C 1.32611 2.59005 -0.00010323 -0.00330558
8 C 2.85521 2.44975 -3.23e-06 -0.0547968
9 C 1.24701 -2.30895 -3.23e-06 0.00207176
11 C -3.11199 0.385055 -3.23e-06 -0.00087955
12 N -1.42069 2.49345 -0.00010323 -0.601155
13 N -1.69359 -2.01825 9.677e-05 -0.60288
14 H 2.16091 0.0311548 -0.00010323 0.0156708
15 H 1.04731 3.18475 -0.904103 0.0187754
16 H 1.04721 3.18495 0.903697 0.0187708
18 H 3.22101 1.91695 0.907497 0.0179678
19 H 3.22111 1.91685 -0.907403 0.0179676
20 H 1.91091 -2.23475 -0.897603 0.0128637
21 H 1.91101 -2.23465 0.897497 0.0128645
28 H -2.46369 2.59145 -3.23e-06 0.181149
30 H -1.30209 -2.98225 9.677e-05 0.182698
31 H -2.73809 -2.00215 9.677e-05 0.181958
29 H -0.86879 3.38415 -0.00010323 0.179566
17 H 3.34091 3.45325 -3.23e-06 0.0154764
