ITEM: TIMESTEP
0
ITEM: NUMBER OF ATOMS
468
ITEM: BOX BOUNDS pp pp pp
-1.3867599999999999e+01 1.3867599999999999e+01
-1.3867599999999999e+01 1.3867599999999999e+01
-1.3867599999999999e+01 1.3867599999999999e+01
ITEM: ATOMS id type x y z fx fy fz ix iy iz vx vy vz xu yu zu mass
130 10 -13.1737 -13.2152 -13.4946 36.4863 -76.1262 48.6901 1 1 1 -0.00282962 -0.00139629 0.0111425 14.5615 14.52 14.2406 15.9994
153 6 -12.827 -13.6685 -11.4262 -6.38032 -8.16722 9.24461 1 1 1 -0.00709346 -0.00154549 -0.01438 14.9082 14.0667 16.309 1.00797
223 5 -9.71471 -13.0646 -5.36154 -40.5252 19.2555 -49.4676 0 0 0 -0.00144445 -0.00133329 0.00813483 -9.71471 -13.0646 -5.36154 12.0112
224 5 -8.51891 -13.6325 -5.58739 25.6306 -12.8344 -73.1684 0 0 0 -0.00769039 -0.00644205 0.00358095 -8.51891 -13.6325 -5.58739 12.0112
227 2 -8.00579 -13.8436 -6.99389 -1.38636 -8.44052 -5.33975 0 0 0 0.00730871 0.000193418 0.00356171 -8.00579 -13.8436 -6.99389 12.0112
228 5 -7.24382 -12.6173 -7.44311 -39.5608 -64.6716 21.5304 0 0 0 -0.00433731 0.00796664 0.00529657 -7.24382 -12.6173 -7.44311 12.0112
229 5 -7.8602 -11.6097 -8.08174 -65.6862 -1.3313 -14.6433 0 0 0 0.000886391 -0.00105925 0.000290818 -7.8602 -11.6097 -8.08174 12.0112
230 5 -7.17537 -10.5232 -8.46856 -46.1653 58.0925 -39.3466 0 0 0 0.000101316 0.00403531 -0.000396615 -7.17537 -10.5232 -8.46856 12.0112
231 5 -5.85506 -10.3776 -8.24328 29.9936 48.7185 -17.3829 0 0 0 0.00108286 0.00695724 0.000783301 -5.85506 -10.3776 -8.24328 12.0112
232 5 -5.25326 -11.3971 -7.59785 84.5017 0.905237 18.6893 0 0 0 0.00365686 -0.000928061 0.00954267 -5.25326 -11.3971 -7.59785 12.0112
233 5 -5.92803 -12.4896 -7.20588 34.2074 -47.408 30.8327 0 0 0 -0.00316056 -0.00418865 -0.00462785 -5.92803 -12.4896 -7.20588 12.0112
234 11 -5.23632 -9.2289 -8.67521 -10.2467 3.68069 -4.46136 0 0 0 -0.000486933 0.00649473 -0.000833659 -5.23632 -9.2289 -8.67521 15.9994
245 6 -10.3418 -12.7469 -6.21097 3.30163 -1.40656 1.16209 0 0 0 -0.0060212 0.00366706 0.0149454 -10.3418 -12.7469 -6.21097 1.00797
250 6 -8.94113 -11.6702 -8.29075 2.61683 -0.43132 0.625099 0 0 0 0.011122 0.0208823 0.000387063 -8.94113 -11.6702 -8.29075 1.00797
251 6 -7.71654 -9.71554 -8.99115 -0.685909 -1.54665 0.581916 0 0 0 -0.022972 -0.0111531 0.0259886 -7.71654 -9.71554 -8.99115 1.00797
253 6 -5.3899 -13.2945 -6.67742 -1.76049 1.74338 -1.38708 0 0 0 0.0155394 0.017818 0.0245237 -5.3899 -13.2945 -6.67742 1.00797
386 3 -6.23506 -4.84206 -5.33831 -12.5046 -6.40384 6.80098 0 0 0 0.00196085 -0.000117322 -0.00138456 -6.23506 -4.84206 -5.33831 12.0112
400 6 -7.24416 -4.66455 -5.75751 7.89355 1.81126 -1.25085 0 0 0 0.0222405 -0.00251667 0.00935982 -7.24416 -4.66455 -5.75751 1.00797
401 6 -6.11354 -5.94961 -5.33368 -1.00315 7.0478 2.22971 0 0 0 -0.0108244 -0.00776199 -0.00584151 -6.11354 -5.94961 -5.33368 1.00797
416 3 -13.5134 -11.8897 -5.61908 10.1742 -2.72394 10.6599 1 1 0 0.00331172 0.00550127 0.00138527 14.2218 15.8455 -5.61908 12.0112
428 6 -13.5088 -10.8434 -5.2335 -0.682525 -6.84814 -3.31044 1 1 0 -0.0141725 -0.0019703 -0.00338482 14.2264 16.8918 -5.2335 1.00797
429 6 -13.8131 -12.5295 -4.75787 4.27676 2.31454 -7.87317 1 1 0 0.0301758 0.00829137 -0.0026246 13.9221 15.2057 -4.75787 1.00797
430 6 -12.4633 -12.1066 -5.92112 -10.9461 -0.962301 2.59387 1 1 0 -0.0275215 -0.000268926 -0.011336 15.2719 15.6286 -5.92112 1.00797
173 10 0.806256 -6.34048 -11.7869 -19.3461 -17.5048 -94.1717 0 0 1 0.0110984 -0.000207256 -0.0010297 0.806256 -6.34048 15.9483 15.9994
174 4 1.00897 -6.09436 -13.2934 35.2308 58.9147 51.8079 0 0 1 -0.00285852 -0.00286005 -0.000269927 1.00897 -6.09436 14.4418 12.0112
175 4 0.170065 -7.15198 -12.9303 -8.59122 -33.6001 73.6465 0 0 1 -0.00328089 0.00545122 0.00040319 0.170065 -7.15198 14.8049 12.0112
176 2 0.724306 -8.57234 -12.8967 -11.0332 -1.48524 7.97518 0 0 1 -0.00419537 0.00570198 0.000888731 0.724306 -8.57234 14.8385 12.0112
182 5 1.73333 -12.5822 -13.5972 35.1952 -31.6348 45.9766 0 0 1 -0.0117944 -0.00257792 -0.00106234 1.73333 -12.5822 14.138 12.0112
183 5 1.40178 -11.3041 -13.3546 27.7899 32.7804 75.3673 0 0 1 -0.00286272 0.000410582 0.00592705 1.40178 -11.3041 14.3806 12.0112
196 6 0.581539 -5.12299 -13.5394 7.83744 2.42393 -10.7984 0 0 1 0.00236376 -0.00911423 -0.0233752 0.581539 -5.12299 14.1958 1.00797
197 6 2.0589 -6.26228 -13.5273 0.473951 5.28882 -11.1049 0 0 1 -0.00594179 0.0166034 -0.0276593 2.0589 -6.26228 14.2079 1.00797
198 6 -0.917618 -7.02787 -12.9323 -0.342273 -7.35012 -3.18768 0 0 1 -0.0167485 0.0233156 0.0148374 -0.917618 -7.02787 14.8029 1.00797
199 6 1.83808 -8.5694 -12.8662 -8.49258 1.55706 4.19692 0 0 1 -0.0363279 0.00126321 0.0170881 1.83808 -8.5694 14.869 1.00797
200 6 0.317569 -9.07944 -11.9911 7.61613 0.880621 -5.35876 0 0 1 0.0217006 -0.010425 -0.00482419 0.317569 -9.07944 15.7441 1.00797
203 6 2.3315 -13.1342 -12.853 -1.64651 0.858795 -2.1087 0 0 1 0.0357583 -0.00167136 -0.0118778 2.3315 -13.1342 14.8822 1.00797
204 6 1.75237 -10.8713 -12.4043 -0.568277 -0.107572 -0.764801 0 0 1 -0.00466731 0.00986003 -0.000964473 1.75237 -10.8713 15.3309 1.00797
235 2 -3.85173 -9.06376 -8.44759 -0.277234 7.45344 11.4141 0 0 0 -0.00258802 -0.00840882 0.00103479 -3.85173 -9.06376 -8.44759 12.0112
236 4 -3.41425 -7.70314 -8.97979 31.6449 -14.4921 73.5711 0 0 0 0.00204593 0.00393625 -0.00322009 -3.41425 -7.70314 -8.97979 12.0112
237 4 -2.7393 -7.62672 -10.2016 83.9767 14.1181 -12.5514 0 0 0 -0.00382705 0.00230097 0.00551188 -2.7393 -7.62672 -10.2016 12.0112
238 10 -1.8781 -7.61616 -8.92513 -85.2886 0.731456 -46.9404 0 0 0 -5.51482e-05 0.00277161 -0.00188367 -1.8781 -7.61616 -8.92513 15.9994
252 6 -4.17695 -11.3677 -7.36602 -0.80238 0.350656 -0.344918 0 0 0 0.0259323 -0.00507768 -0.00624541 -4.17695 -11.3677 -7.36602 1.00797
254 6 -3.65136 -9.08535 -7.35111 0.149688 -5.08254 -7.86757 0 0 0 0.000469257 0.00641894 0.0137506 -3.65136 -9.08535 -7.35111 1.00797
255 6 -3.30173 -9.88998 -8.95371 -0.237925 7.46565 5.98595 0 0 0 -0.0106879 -0.016882 0.0106742 -3.30173 -9.88998 -8.95371 1.00797
256 6 -3.86686 -6.81105 -8.53519 -6.26588 -4.28017 2.20818 0 0 0 -0.00492614 0.0333235 0.024442 -3.86686 -6.81105 -8.53519 1.00797
257 6 -2.62306 -6.6638 -10.6975 -2.76736 -4.26694 -12.4158 0 0 0 0.00882931 0.0214526 0.00747391 -2.62306 -6.6638 -10.6975 1.00797
258 6 -2.49638 -8.52376 -10.7685 -5.00191 3.01863 -10.8687 0 0 0 0.038601 0.00336049 0.0031369 -2.49638 -8.52376 -10.7685 1.00797
391 6 -1.1571 -5.19375 -5.55199 0.201079 8.1746 2.92395 0 0 0 -0.00975134 -0.00188941 -0.0123985 -1.1571 -5.19375 -5.55199 1.00797
409 5 13.0033 -13.3238 -7.55422 5.93268 59.5265 28.3319 0 1 0 -0.00279659 -0.0020596 -0.000582856 13.0033 14.4114 -7.55422 12.0112
410 5 12.1079 -13.219 -8.55515 -24.6342 49.6382 -10.7768 0 1 0 -0.00114248 0.00555895 -0.00279076 12.1079 14.5162 -8.55515 12.0112
414 3 10.1148 -12.6683 -10.6671 -4.02659 10.4985 -0.752361 0 1 0 -0.00481839 0.00890562 -0.00590461 10.1148 15.0669 -10.6671 12.0112
415 2 13.2488 -12.0197 -6.79552 -9.5987 21.2017 -3.60157 0 1 0 -0.000545462 -0.00808283 0.00406635 13.2488 15.7155 -6.79552 12.0112
420 6 11.6528 -12.2313 -8.72411 -0.243239 -0.908704 -0.696126 0 1 0 -0.0138943 0.0066017 0.0155707 11.6528 15.5039 -8.72411 1.00797
423 6 9.38858 -12.6772 -11.5129 5.3064 0.0812676 6.05834 0 1 0 0.0198902 -0.00756137 -0.00247883 9.38858 15.058 -11.5129 1.00797
424 6 9.55343 -12.329 -9.76657 5.41523 -2.05731 -6.29638 0 1 0 0.0101851 0.0119114 -0.011981 9.55343 15.4062 -9.76657 1.00797
425 6 10.891 -11.91 -10.9194 -5.55348 -5.52032 3.13399 0 1 0 0.00700759 -0.00706803 0.000691094 10.891 15.8252 -10.9194 1.00797
426 6 13.5765 -11.2654 -7.55416 -4.5787 -3.75233 6.05234 0 1 0 0.0111368 -0.00640137 -0.00496445 13.5765 16.4698 -7.55416 1.00797
427 6 12.2534 -11.6797 -6.41391 7.35248 -0.0222496 -4.22969 0 1 0 -0.0127451 -0.00277085 -0.000473834 12.2534 16.0555 -6.41391 1.00797
44 10 -9.71843 -0.610585 -9.81271 87.2913 -11.379 43.9524 0 0 0 -0.000815716 0.00321257 -0.000245567 -9.71843 -0.610585 -9.81271 15.9994
45 4 -8.20852 -0.91268 -9.80423 -56.1659 -17.364 -76.6167 0 0 0 0.00277832 0.00049402 -0.00434999 -8.20852 -0.91268 -9.80423 12.0112
46 4 -8.78108 -0.50499 -8.59586 -74.5556 33.0505 11.7549 0 0 0 0.00232331 -0.00554869 0.00695412 -8.78108 -0.50499 -8.59586 12.0112
47 2 -8.68151 0.957006 -8.17348 -10.4762 -4.10689 7.63826 0 0 0 -0.00254103 0.00441299 0.000952067 -8.68151 0.957006 -8.17348 12.0112
48 11 -7.67658 1.0893 -7.18918 8.14683 -4.75098 6.898 0 0 0 0.00245004 0.00377147 -0.00434163 -7.67658 1.0893 -7.18918 15.9994
49 5 -7.42273 2.32853 -6.65202 -12.8594 -52.3365 -26.0496 0 0 0 -0.000923173 0.00443154 -0.00433606 -7.42273 2.32853 -6.65202 12.0112
50 5 -6.42574 2.45073 -5.75406 46.7592 -65.0077 25.3812 0 0 0 -0.00452247 0.00494045 -0.00104114 -6.42574 2.45073 -5.75406 12.0112
51 5 -6.1058 3.62119 -5.18251 50.3972 -0.707051 44.6185 0 0 0 -0.000593069 -0.000937715 0.000839117 -6.1058 3.62119 -5.18251 12.0112
54 5 -8.08426 3.46415 -6.95333 -65.6177 1.32629 -56.7138 0 0 0 0.00107181 -0.00152082 0.00543051 -8.08426 3.46415 -6.95333 12.0112
67 6 -8.07333 -1.97399 -10.0095 9.78969 1.11003 -5.73407 0 0 0 -0.00294513 0.0127966 0.0168621 -8.07333 -1.97399 -10.0095 1.00797
68 6 -7.71527 -0.200108 -10.4632 9.52725 -6.79399 0.860216 0 0 0 0.0517504 -0.0371152 -0.0101711 -7.71527 -0.200108 -10.4632 1.00797
69 6 -9.0562 -1.23978 -7.83241 2.73744 5.30291 5.42623 0 0 0 0.00329732 0.0420293 -0.0131916 -9.0562 -1.23978 -7.83241 1.00797
70 6 -8.42648 1.60992 -9.03957 -6.16101 -5.64781 4.67802 0 0 0 0.00508045 0.0161493 0.019407 -8.42648 1.60992 -9.03957 1.00797
71 6 -9.66444 1.25871 -7.74263 7.11675 2.86421 -5.35816 0 0 0 -0.0181583 0.00928488 0.00510901 -9.66444 1.25871 -7.74263 1.00797
72 6 -5.84734 1.55212 -5.47792 0.32092 1.39522 0.425303 0 0 0 0.00501277 -0.00431488 0.00268697 -5.84734 1.55212 -5.47792 1.00797
75 6 -8.91048 3.46509 -7.68176 0.641462 -0.454459 0.547501 0 0 0 0.0171266 0.0214706 -0.00657763 -8.91048 3.46509 -7.68176 1.00797
321 2 -13.4764 1.31022 -6.42315 5.79892 10.506 -6.40343 0 0 0 0.00110328 0.000268287 0.00129587 -13.4764 1.31022 -6.42315 12.0112
322 4 -13.8121 0.969311 -7.87125 74.496 32.2937 6.50786 0 0 0 0.00593931 -0.0083881 -0.00988684 -13.8121 0.969311 -7.87125 12.0112
324 10 -12.688 0.0914298 -8.4509 -92.9594 17.7759 25.8807 0 0 0 0.00356061 0.00581351 0.00485252 -12.688 0.0914298 -8.4509 15.9994
340 6 -12.6073 2.00843 -6.42627 -3.8136 -7.30905 4.59228 0 0 0 -0.00972395 0.012059 0.00795939 -12.6073 2.00843 -6.42627 1.00797
341 6 -13.229 0.393365 -5.84054 2.18884 6.44805 -6.71797 0 0 0 -0.0216482 0.0106971 0.0112602 -13.229 0.393365 -5.84054 1.00797
352 3 -7.87515 1.8675 -12.7685 -4.78194 1.02863 10.3414 0 0 1 0.0039967 0.0023868 -0.000241596 -7.87515 1.8675 14.9667 12.0112
358 6 -9.49928 0.177927 -13.6846 0.775285 0.401436 -0.0943706 0 0 1 0.0104906 -0.0208356 0.0100135 -9.49928 0.177927 14.0506 1.00797
361 6 -7.2612 2.60741 -12.2042 -4.42968 -5.40557 -3.96163 0 0 1 -0.00648494 0.00182384 -0.0117426 -7.2612 2.60741 15.531 1.00797
362 6 -8.9136 2.26992 -12.799 7.30415 -4.423 0.253659 0 0 1 0.000119138 0.0108419 -0.0329647 -8.9136 2.26992 14.9362 1.00797
363 6 -7.86711 0.925083 -12.1744 -1.61735 8.9384 -8.20668 0 0 1 -0.0099978 0.00842525 0.00560531 -7.86711 0.925083 15.5608 1.00797
364 6 -10.6248 -1.99105 -13.8607 -4.37111 5.18533 -5.00057 0 0 1 0.00746901 -0.00840286 0.000922243 -10.6248 -1.99105 13.8745 1.00797
376 5 -5.06288 -4.18776 -6.05868 -60.8671 -29.1313 30.4689 0 0 0 0.00023567 0.0100071 -0.000753884 -5.06288 -4.18776 -6.05868 12.0112
377 5 -5.21286 -3.41915 -7.16278 49.3823 -7.19919 18.5438 0 0 0 -0.00103108 0.00565266 0.00208374 -5.21286 -3.41915 -7.16278 12.0112
385 3 -5.35336 -1.55873 -9.79801 -10.5025 0.834388 -4.76694 0 0 0 -0.00269774 0.00012041 0.00216222 -5.35336 -1.55873 -9.79801 12.0112
388 9 -6.38311 -3.23693 -7.61632 -185.68 30.7542 -74.8742 0 0 0 -0.00372004 -0.00471948 -0.00698913 -6.38311 -3.23693 -7.61632 14.0067
397 6 -5.07071 -0.910402 -10.6602 -0.640386 -4.29871 6.2024 0 0 0 -0.0231986 0.0134113 -0.0192208 -5.07071 -0.910402 -10.6602 1.00797
398 6 -5.87696 -2.43802 -10.2379 4.03967 5.88515 5.97682 0 0 0 -0.00237159 -0.00398641 -0.0248517 -5.87696 -2.43802 -10.2379 1.00797
399 6 -6.05568 -0.953501 -9.18045 18.074 -7.97245 0.481902 0 0 0 0.0178867 -0.000272153 0.000630339 -6.05568 -0.953501 -9.18045 1.00797
405 7 -6.58957 -2.66179 -8.45843 11.6828 -20.1556 30.2724 0 0 0 -0.0254227 0.00787776 0.0198351 -6.58957 -2.66179 -8.45843 1.00797
406 7 -7.24003 -3.64855 -7.18332 35.1415 14.2883 -14.2417 0 0 0 -0.0223568 0.030149 -0.000154493 -7.24003 -3.64855 -7.18332 1.00797
1 10 -2.88687 1.31819 -8.92691 89.5882 37.6818 -22.8319 0 0 0 0.00784847 0.00532946 -0.00122574 -2.88687 1.31819 -8.92691 15.9994
2 4 -1.94218 2.33581 -9.59263 -82.7206 6.04286 -23.2287 0 0 0 0.00483011 -0.011362 -0.000890668 -1.94218 2.33581 -9.59263 12.0112
3 4 -1.3527 1.34642 -8.80028 -36.9475 -50.4538 52.057 0 0 0 0.00384234 -0.000831943 0.0115154 -1.3527 1.34642 -8.80028 12.0112
4 2 -0.981305 1.66396 -7.35564 -0.500477 -13.6421 0.544687 0 0 0 -0.00137115 -0.00473863 -0.00453315 -0.981305 1.66396 -7.35564 12.0112
5 11 0.411483 1.88599 -7.27157 10.5878 0.40403 -4.88336 0 0 0 -0.00500447 0.00211317 0.00828553 0.411483 1.88599 -7.27157 15.9994
6 5 0.971828 2.17752 -6.05104 -27.7023 -12.0557 -51.555 0 0 0 -0.00108798 -0.00353706 -0.00247786 0.971828 2.17752 -6.05104 12.0112
7 5 2.29201 2.44024 -5.99326 49.7098 -1.58046 -67.6602 0 0 0 -0.00491056 -0.00389097 -0.00541677 2.29201 2.44024 -5.99326 12.0112
8 5 2.92128 2.73809 -4.84682 66.0102 11.4729 -3.75282 0 0 0 0.00022419 -0.00256041 -0.00112729 2.92128 2.73809 -4.84682 12.0112
11 5 0.308908 2.23879 -4.87851 -85.218 -15.4055 5.60991 0 0 0 0.00106041 0.00081669 0.00352835 0.308908 2.23879 -4.87851 12.0112
24 6 -2.00385 2.20096 -10.6719 3.51661 12.6882 -3.29904 0 0 0 0.0215597 -0.0145793 0.00480371 -2.00385 2.20096 -10.6719 1.00797
25 6 -2.16585 3.32205 -9.18944 5.73176 7.05454 -8.24571 0 0 0 0.0184611 -0.0155737 0.0117203 -2.16585 3.32205 -9.18944 1.00797
26 6 -0.911726 0.45455 -9.25697 5.90466 0.661012 5.31736 0 0 0 -0.0028583 -0.0205408 -0.0157815 -0.911726 0.45455 -9.25697 1.00797
27 6 -1.51412 2.57297 -6.99335 -0.153751 -9.15036 -2.67977 0 0 0 0.00923708 -0.0136411 0.0240601 -1.51412 2.57297 -6.99335 1.00797
28 6 -1.25495 0.783964 -6.7283 0.19051 9.34262 -0.17671 0 0 0 -0.028487 -0.0106491 -0.0235956 -1.25495 0.783964 -6.7283 1.00797
29 6 2.88018 2.4108 -6.92681 0.60966 0.298597 1.6803 0 0 0 -0.00147505 -0.0109816 0.00931297 2.88018 2.4108 -6.92681 1.00797
30 6 4.00381 2.94682 -4.86242 -2.64353 -0.505985 0.591443 0 0 0 -0.0154354 -0.00679006 -0.0133838 4.00381 2.94682 -4.86242 1.00797
32 6 -0.774336 2.04608 -4.82664 0.799898 -0.0942124 -0.41961 0 0 0 -0.00805395 -0.0259689 0.0134305 -0.774336 2.04608 -4.82664 1.00797
378 5 -4.14178 -2.85982 -7.76694 8.74384 38.909 -53.0115 0 0 0 0.00386245 -0.00280939 0.00433258 -4.14178 -2.85982 -7.76694 12.0112
379 5 -2.93188 -3.09987 -7.22552 46.3727 22.3552 -23.4695 0 0 0 -0.000585412 -0.00166257 0.000513092 -2.93188 -3.09987 -7.22552 12.0112
380 5 -2.73335 -3.85395 -6.13362 73.3266 10.1303 -2.02056 0 0 0 0.00409141 0.00355572 0.00243457 -2.73335 -3.85395 -6.13362 12.0112
381 5 -3.82504 -4.39387 -5.56036 -5.09429 30.7538 -44.2387 0 0 0 -0.00730967 0.00822271 0.00777098 -3.82504 -4.39387 -5.56036 12.0112
382 2 -1.34174 -4.0918 -5.56477 8.72483 -7.68165 12.5196 0 0 0 0.000793009 0.00223146 -0.000739423 -1.34174 -4.0918 -5.56477 12.0112
383 3 -0.151526 -3.43802 -6.28156 8.16353 5.46189 -5.79134 0 0 0 0.000831285 0.000142579 0.00977528 -0.151526 -3.43802 -6.28156 12.0112
384 2 -4.10575 -1.97022 -9.00942 18.5038 9.3656 -10.6166 0 0 0 0.000419898 0.00213814 0.000307725 -4.10575 -1.97022 -9.00942 12.0112
389 6 -2.05925 -2.64427 -7.7176 0.0298757 -0.666829 0.848481 0 0 0 -0.0125615 0.00960998 0.0158904 -2.05925 -2.64427 -7.7176 1.00797
392 6 0.803819 -3.69077 -5.76547 -6.92139 1.82131 -3.79754 0 0 0 -0.000596852 0.0193286 0.0360698 0.803819 -3.69077 -5.76547 1.00797
393 6 -0.0532815 -3.79783 -7.33138 -1.64508 3.55665 7.41766 0 0 0 0.0247511 -0.0132262 0.0221373 -0.0532815 -3.79783 -7.33138 1.00797
394 6 -0.230254 -2.32669 -6.28338 -0.12901 -8.37296 -1.16646 0 0 0 0.00970731 -0.0139479 0.0131823 -0.230254 -2.32669 -6.28338 1.00797
395 6 -3.60211 -1.01815 -8.70636 -2.8221 -10.6888 -3.75567 0 0 0 0.0275994 0.00108363 0.00964294 -3.60211 -1.01815 -8.70636 1.00797
396 6 -3.4269 -2.47316 -9.74301 -3.1144 6.01814 5.31389 0 0 0 -0.0454619 -0.0305601 -0.0231515 -3.4269 -2.47316 -9.74301 1.00797
320 11 13.1477 1.94624 -5.82551 -11.1122 3.74547 -0.33719 -1 0 0 0.00075955 0.0100311 -0.00469352 -14.5875 1.94624 -5.82551 15.9994
323 4 13.5906 -0.345731 -8.20933 49.2607 -57.4909 -41.0217 -1 0 0 -0.000502559 -0.00821003 0.00558176 -14.1446 -0.345731 -8.20933 12.0112
342 6 13.6908 1.79609 -8.55012 -2.1017 4.20656 6.41726 -1 0 0 -0.00237113 0.0217694 -0.0258734 -14.0444 1.79609 -8.55012 1.00797
343 6 13.1353 -0.558555 -9.17582 -9.2394 -8.80074 4.54183 -1 0 0 -0.008092 0.0116939 -0.0129857 -14.5999 -0.558555 -9.17582 1.00797
344 6 13.5924 -1.13755 -7.46226 -11.3708 -4.38698 -1.62167 -1 0 0 0.0182061 -0.00889519 0.00547917 -14.1428 -1.13755 -7.46226 1.00797
52 5 -6.78045 4.74115 -5.48905 17.3503 68.557 34.3896 0 0 0 0.000683844 -0.00206108 -0.0020443 -6.78045 4.74115 -5.48905 12.0112
53 5 -7.7736 4.6414 -6.38782 -35.6846 52.6467 -17.4371 0 0 0 -0.00277501 0.00667817 -0.000292262 -7.7736 4.6414 -6.38782 12.0112
55 2 -6.42291 6.0678 -4.85799 -4.16814 3.70455 8.4977 0 0 0 0.00802161 -0.00138155 -0.0076146 -6.42291 6.0678 -4.85799 12.0112
56 5 -5.36801 6.75689 -5.69375 -54.7395 -34.4797 44.9794 0 0 0 -0.000819664 0.00207703 -0.00430944 -5.36801 6.75689 -5.69375 12.0112
60 5 -4.76802 8.1736 -7.45676 -29.3573 50.9379 -63.481 0 0 0 -0.00294083 0.0146408 -0.00562658 -4.76802 8.1736 -7.45676 12.0112
61 5 -5.70495 7.56809 -6.70978 -63.1496 12.2395 -14.8061 0 0 0 0.00287132 0.000822437 -0.00291057 -5.70495 7.56809 -6.70978 12.0112
74 6 -8.34407 5.54201 -6.67048 1.60346 -1.96017 1.05575 0 0 0 0.0150317 0.00351589 0.0010895 -8.34407 5.54201 -6.67048 1.00797
76 6 -7.32647 6.71243 -4.76142 7.44737 -5.36114 -0.332604 0 0 0 0.0192359 0.0196267 -0.00520507 -7.32647 6.71243 -4.76142 1.00797
80 6 -5.12489 8.82316 -8.27149 0.552343 -0.438427 0.464804 0 0 0 0.00904454 -0.0125761 -0.0319442 -5.12489 8.82316 -8.27149 1.00797
81 6 -6.77028 7.73989 -6.93839 2.52312 -0.683991 0.98606 0 0 0 0.0181312 0.00292501 0.0186472 -6.77028 7.73989 -6.93839 1.00797
131 4 -13.1538 13.5295 -12.3158 -51.2279 68.3344 10.8577 1 0 1 -0.00618547 0.00228465 -0.00305461 14.5814 13.5295 15.4194 12.0112
132 4 -12.2517 13.2946 -13.3576 0.552761 34.1423 -73.5969 1 0 1 0.00405589 0.0034522 -0.00377401 15.4835 13.2946 14.3776 12.0112
155 6 -11.2059 13.6066 -13.2716 1.94108 -6.94509 -3.45249 1 0 1 -0.0054942 -0.00966855 0.0110786 16.5293 13.6066 14.4636 1.00797
246 6 -6.79917 13.2822 -4.66468 -2.42106 1.01983 -0.110589 0 -1 0 -0.0192429 -0.0173587 -0.00685727 -6.79917 -14.453 -4.66468 1.00797
248 6 -7.35508 12.9885 -7.04263 -5.68437 7.22026 0.141347 0 -1 0 -0.0211788 0.006315 -0.0206168 -7.35508 -14.7467 -7.04263 1.00797
249 6 -8.85015 13.6783 -7.68877 7.12032 1.40172 5.50381 0 -1 0 -0.00979544 -0.00927268 0.0269751 -8.85015 -14.0569 -7.68877 1.00797
419 9 -13.3225 13.0251 -6.42275 135.476 -24.1016 147.802 1 0 0 -0.00046629 0.00235069 0.00259704 14.4127 13.0251 -6.42275 14.0067
431 6 -13.1703 10.6313 -7.11646 -4.78609 5.59977 -3.50852 1 0 0 -0.000226979 -0.0259779 -0.019961 14.5649 10.6313 -7.11646 1.00797
433 6 -13.3778 10.4331 -8.85621 -4.68681 0.0841117 5.87377 1 0 0 0.0132897 -0.0151512 0.0199046 14.3574 10.4331 -8.85621 1.00797
436 7 -13.0076 13.7822 -5.78226 -13.4024 -25.1842 -24.4173 1 0 0 -0.0141878 -0.00636196 -0.00326616 14.7276 13.7822 -5.78226 1.00797
437 7 -12.8649 12.1071 -6.22536 -19.2478 34.0432 -9.94473 1 0 0 0.00643911 -0.00191814 -0.00558191 14.8703 12.1071 -6.22536 1.00797
57 5 -4.05966 6.56972 -5.45645 22.5101 -39.376 49.8095 0 0 0 0.0018288 -0.00352311 -0.00141588 -4.05966 6.56972 -5.45645 12.0112
58 5 -3.13277 7.18025 -6.20956 79.3746 -17.1094 21.7351 0 0 0 0.000683328 -0.00391909 0.00262565 -3.13277 7.18025 -6.20956 12.0112
59 5 -3.45011 8.00008 -7.23053 41.7392 26.8223 -33.2544 0 0 0 -0.00109843 0.00412836 -0.00448655 -3.45011 8.00008 -7.23053 12.0112
62 11 -2.4327 8.58179 -7.94837 7.82556 -5.25403 7.11342 0 0 0 -0.00134562 -0.0044576 -0.000869679 -2.4327 8.58179 -7.94837 15.9994
63 2 -2.75094 9.4454 -9.02032 0.82632 -8.63687 -10.3588 0 0 0 -0.00127482 -0.00370624 -0.00578357 -2.75094 9.4454 -9.02032 12.0112
64 4 -1.46139 9.92706 -9.6768 -55.3171 -21.9441 -55.4279 0 0 0 0.00522063 0.00540383 -0.00875808 -1.46139 9.92706 -9.6768 12.0112
65 4 -0.98947 11.2143 -9.40399 -3.44033 68.9817 -51.3083 0 0 0 0.00196224 -0.00746637 0.00050097 -0.98947 11.2143 -9.40399 12.0112
66 10 -1.80208 11.0272 -10.6985 44.623 -33.6277 80.0135 0 0 0 0.00441763 -0.00568587 0.00087648 -1.80208 11.0272 -10.6985 15.9994
78 6 -3.73862 5.90625 -4.63639 -1.31421 1.60272 -1.87295 0 0 0 -0.0352982 0.00479167 0.00997822 -3.73862 5.90625 -4.63639 1.00797
79 6 -2.06709 7.00197 -5.98404 -1.312 -0.795344 0.931714 0 0 0 0.0067723 0.0260145 -0.00362995 -2.06709 7.00197 -5.98404 1.00797
82 6 -3.33854 8.88594 -9.78491 -0.742107 5.97162 7.27858 0 0 0 0.0222581 0.0125885 -0.0202739 -3.33854 8.88594 -9.78491 1.00797
83 6 -3.34783 10.3011 -8.6294 3.45767 -5.10536 -7.28995 0 0 0 0.00219875 -0.00689615 0.0147906 -3.34783 10.3011 -8.6294 1.00797
84 6 -0.804421 9.17487 -10.1251 -3.26591 -5.34182 5.0024 0 0 0 -0.00489976 -0.0398024 -0.0214953 -0.804421 9.17487 -10.1251 1.00797
85 6 0.0284838 11.4882 -9.67872 2.95665 6.67448 11.458 0 0 0 -0.000567534 -0.00223705 -0.0202043 0.0284838 11.4882 -9.67872 1.00797
86 6 -1.53973 11.89 -8.75146 8.9082 2.88655 8.00364 0 0 0 -0.000423067 0.013025 -0.0156337 -1.53973 11.89 -8.75146 1.00797
154 6 13.6178 13.0241 -12.2797 0.910357 -4.85533 11.4054 0 0 1 0.00117716 -0.00684979 -0.004995 13.6178 13.0241 15.4555 1.00797
407 5 13.2265 12.14 -8.12068 32.6455 -64.9816 14.0616 0 0 0 0.000317551 0.00405436 0.0028205 13.2265 12.14 -8.12068 12.0112
408 5 13.5617 13.1989 -7.34694 -35.6959 7.83811 -38.6542 0 0 0 0.00194526 -0.00215066 -0.00503364 13.5617 13.1989 -7.34694 12.0112
411 5 11.744 13.4966 -9.34779 -46.7109 42.2183 -38.9728 0 0 0 0.00189667 0.00469586 -0.00171453 11.744 13.4966 -9.34779 12.0112
412 5 12.3223 12.3046 -9.10985 12.8696 42.7465 30.4213 0 0 0 0.00151308 0.00750697 -0.00406237 12.3223 12.3046 -9.10985 12.0112
413 2 10.7257 13.6726 -10.4653 -8.22441 -8.08287 -12.6548 0 0 0 0.000956484 -0.00517748 0.00613996 10.7257 13.6726 -10.4653 12.0112
417 3 13.8249 10.7519 -7.9309 6.64128 -13.8646 2.46639 0 0 0 0.00196574 0.00107812 0.00282855 13.8249 10.7519 -7.9309 12.0112
418 9 11.9999 11.3183 -9.84254 -49.5642 -155.036 -114.694 0 0 0 0.000697836 -0.00533526 0.00367085 11.9999 11.3183 -9.84254 14.0067
421 6 11.2142 13.3817 -11.4272 -6.72699 0.558176 5.92058 0 0 0 0.00614775 0.0116567 -0.00230787 11.2142 13.3817 -11.4272 1.00797
422 6 9.88185 12.9642 -10.2789 5.98696 4.38022 -4.83874 0 0 0 -0.0252835 -0.0230923 0.0191428 9.88185 12.9642 -10.2789 1.00797
432 6 13.021 10.0146 -7.70389 5.91258 3.403 -3.22288 0 0 0 0.00355381 0.0148393 0.0130551 13.021 10.0146 -7.70389 1.00797
434 7 12.4152 10.3662 -9.70647 -18.0166 37.4287 -7.21453 0 0 0 -0.010122 0.0267783 0.00273539 12.4152 10.3662 -9.70647 1.00797
435 7 11.3014 11.4157 -10.6175 28.4059 -6.73422 30.7164 0 0 0 -0.0108926 0.00227205 -0.0217894 11.3014 11.4157 -10.6175 1.00797
99 5 -6.25461 -4.81255 2.60185 14.8365 64.0064 -43.4672 0 0 0 -0.00588558 -0.00763051 -0.00331617 -6.25461 -4.81255 2.60185 12.0112
100 5 -5.70698 -6.00005 2.29681 41.7215 -8.29701 -52.1206 0 0 0 -0.000548009 0.000334219 0.00110702 -5.70698 -6.00005 2.29681 12.0112
101 5 -5.98589 -7.09054 3.02625 38.2253 -70.1759 -26.0454 0 0 0 -0.00165759 0.00513003 0.00856956 -5.98589 -7.09054 3.02625 12.0112
102 5 -6.81353 -7.06234 4.08898 -12.0651 -48.846 32.1968 0 0 0 -0.00643078 0.00477406 -0.000949333 -6.81353 -7.06234 4.08898 12.0112
103 5 -7.35142 -5.86133 4.38296 -54.3325 11.0117 66.6532 0 0 0 0.00144647 0.00229007 -0.00775201 -7.35142 -5.86133 4.38296 12.0112
104 5 -7.07993 -4.76292 3.66029 -29.4 56.2962 18.3535 0 0 0 0.00610945 0.00152029 -0.00463211 -7.07993 -4.76292 3.66029 12.0112
121 6 -5.01825 -6.08447 1.43991 -1.85586 0.818363 1.96503 0 0 0 -0.0172522 0.020446 0.00882203 -5.01825 -6.08447 1.43991 1.00797
122 6 -5.51667 -8.04912 2.74469 0.261489 1.64584 -0.817462 0 0 0 0.00935896 0.00311543 0.00523984 -5.51667 -8.04912 2.74469 1.00797
216 10 -9.11809 -13.1228 1.85223 -57.7115 50.6776 -59.3342 0 0 0 0.00693951 0.00151831 -0.00288888 -9.11809 -13.1228 1.85223 15.9994
217 4 -9.73065 -11.8105 1.32909 41.4956 6.3277 75.135 0 0 0 0.00174644 -0.00325788 0.00799582 -9.73065 -11.8105 1.32909 12.0112
218 4 -10.024 -12.9765 0.615923 36.118 -72.5093 6.84651 0 0 0 -0.00438695 -0.00324359 -0.0027036 -10.024 -12.9765 0.615923 12.0112
219 2 -9.21626 -13.3162 -0.632233 -2.65081 -8.08033 4.35229 0 0 0 0.00707836 -0.00456515 -0.00671906 -9.21626 -13.3162 -0.632233 12.0112
220 11 -9.97634 -12.9962 -1.77944 -5.06133 17.5717 -6.18123 0 0 0 -0.00291887 -0.00657744 0.0013598 -9.97634 -12.9962 -1.77944 15.9994
221 5 -9.44463 -13.234 -3.0242 -18.6178 11.5024 54.2473 0 0 0 -0.0146876 0.0104629 0.00679891 -9.44463 -13.234 -3.0242 12.0112
222 5 -10.1572 -12.8745 -4.10971 -76.0681 35.1504 5.36702 0 0 0 0.00246064 -0.0034547 0.00166204 -10.1572 -12.8745 -4.10971 12.0112
226 5 -8.24366 -13.7957 -3.26955 52.2364 -26.0473 63.7867 0 0 0 0.00828295 -0.00500244 0.00557692 -8.24366 -13.7957 -3.26955 12.0112
239 6 -10.4317 -11.4412 2.07667 0.892695 13.1511 -3.45405 0 0 0 0.00550433 0.0250626 0.0182809 -10.4317 -11.4412 2.07667 1.00797
240 6 -8.91785 -11.153 1.02509 -6.12738 10.6917 -0.766003 0 0 0 0.0054122 -0.0206664 -0.000896236 -8.91785 -11.153 1.02509 1.00797
241 6 -10.9727 -13.5008 0.768964 -0.0793068 -1.05001 -7.84638 0 0 0 -0.00646219 0.0127922 -0.00926656 -10.9727 -13.5008 0.768964 1.00797
242 6 -8.26053 -12.7443 -0.661499 -5.49769 -7.03564 3.75014 0 0 0 -0.0101332 0.00596213 0.00863519 -8.26053 -12.7443 -0.661499 1.00797
244 6 -11.1446 -12.4032 -3.964 1.69456 -0.343741 -0.844064 0 0 0 0.00731735 0.0218862 0.00254195 -11.1446 -12.4032 -3.964 1.00797
457 6 -13.4419 -5.02615 2.4084 -5.81993 5.42785 2.9494 0 0 0 0.0129859 -0.0174649 0.0208218 -13.4419 -5.02615 2.4084 1.00797
387 9 -3.6718 -5.11322 -4.52468 22.8591 -113.156 163.061 0 0 0 -0.00412432 -0.00657784 -0.00134655 -3.6718 -5.11322 -4.52468 14.0067
403 7 -4.48236 -5.56031 -4.03422 34.0565 17.1373 -18.489 0 0 0 -0.00150047 -0.00912708 -0.00530591 -4.48236 -5.56031 -4.03422 1.00797
404 7 -2.72371 -5.29078 -4.11536 -39.4046 5.62918 -14.916 0 0 0 0.0266142 0.0134464 -0.0198562 -2.72371 -5.29078 -4.11536 1.00797
459 6 12.2822 -4.69209 1.05567 4.76545 5.501 2.4214 -1 0 0 -0.0127737 0.00582109 0.00105236 -15.453 -4.69209 1.05567 1.00797
73 6 -5.27731 3.65981 -4.45602 -2.16751 0.325553 -1.78383 0 0 0 -0.0051928 -0.00576304 -0.00128381 -5.27731 3.65981 -4.45602 1.00797
95 5 -4.74784 -2.86667 2.39377 -62.1638 -35.3153 -32.7189 0 0 0 -0.00294992 -0.0097651 0.00366524 -4.74784 -2.86667 2.39377 12.0112
96 5 -4.89858 -1.91968 3.3343 -59.7569 18.2797 21.0826 0 0 0 0.00952452 -0.00117757 0.00305337 -4.89858 -1.91968 3.3343 12.0112
98 2 -5.94168 -3.57387 1.7932 -5.12332 3.18745 -7.97276 0 0 0 -0.00115453 0.00748251 5.81541e-05 -5.94168 -3.57387 1.7932 12.0112
117 6 -5.91169 -1.64739 3.67475 2.08529 -0.972631 -1.37395 0 0 0 -0.0176296 -0.011501 -0.0262049 -5.91169 -1.64739 3.67475 1.00797
119 6 -6.82471 -2.89522 1.76183 7.21301 -5.5243 -0.199858 0 0 0 -0.0348931 0.00355992 0.00320059 -6.82471 -2.89522 1.76183 1.00797
120 6 -5.7426 -3.83987 0.729761 -2.09308 2.41103 8.61366 0 0 0 -0.0404747 -0.0122165 -0.014497 -5.7426 -3.83987 0.729761 1.00797
124 6 -7.54271 -3.80289 3.94468 0.997933 -2.04231 -1.24509 0 0 0 -0.0348026 -0.00126601 -0.00639068 -7.54271 -3.80289 3.94468 1.00797
270 2 -8.00049 4.25975 2.18567 -7.62064 -6.77927 -0.432343 0 0 0 -0.0101734 -0.00739459 -0.00142854 -8.00049 4.25975 2.18567 12.0112
271 5 -6.55269 3.97544 1.8552 -75.9486 12.9117 16.5107 0 0 0 0.00210916 -0.00414836 0.00114163 -6.55269 3.97544 1.8552 12.0112
272 5 -6.07929 4.13209 0.608411 -38.8942 19.7487 -51.3253 0 0 0 -0.0036359 0.00893747 0.000604873 -6.07929 4.13209 0.608411 12.0112
273 5 -4.79109 3.88435 0.328751 21.2721 12.1226 -80.5464 0 0 0 -0.00213151 -0.000609209 0.000850919 -4.79109 3.88435 0.328751 12.0112
276 5 -5.68934 3.57006 2.80082 -19.1982 -9.47366 62.5258 0 0 0 0.00591497 0.00154407 -0.00101157 -5.68934 3.57006 2.80082 12.0112
291 6 -8.35795 3.57765 2.99081 2.53902 5.50947 -6.89988 0 0 0 0.00540986 0.0145304 -0.0215615 -8.35795 3.57765 2.99081 1.00797
292 6 -8.6529 4.04087 1.30947 5.19356 1.41095 7.43627 0 0 0 0.00976337 -0.00197388 0.0115024 -8.6529 4.04087 1.30947 1.00797
293 6 -6.75207 4.46997 -0.197161 1.18861 -0.89801 2.29316 0 0 0 -0.00443678 -0.00552799 -0.0158151 -6.75207 4.46997 -0.197161 1.00797
296 6 -6.04123 3.43724 3.83775 0.417382 0.483913 -2.77493 0 0 0 -0.00293503 -0.032387 0.0342408 -6.04123 3.43724 3.83775 1.00797
318 5 -13.4116 2.24597 -3.73039 72.9494 -37.4544 -27.6859 0 0 0 0.00253044 -2.23442e-05 -0.00569826 -13.4116 2.24597 -3.73039 12.0112
319 5 -13.3985 2.69102 -2.46381 55.393 -9.19729 34.827 0 0 0 -0.00666377 -0.00220878 -0.00583932 -13.3985 2.69102 -2.46381 12.0112
334 6 -13.8197 3.1436 0.13914 -5.59482 5.35891 -4.90661 0 0 0 -0.00124513 0.0120276 0.026367 -13.8197 3.1436 0.13914 1.00797
338 6 -12.49 1.76909 -4.09938 -0.67291 0.344665 -0.0259692 0 0 0 -0.0264563 -0.00341904 0.0174675 -12.49 1.76909 -4.09938 1.00797
339 6 -12.4851 2.56598 -1.85821 -2.45692 0.495336 -1.14973 0 0 0 -0.00185194 -0.00918485 0.0135942 -12.4851 2.56598 -1.85821 1.00797
402 6 -6.29025 -4.47974 -4.28611 0.394707 -4.53221 -6.03223 0 0 0 -0.0156338 -0.0151917 -0.000549864 -6.29025 -4.47974 -4.28611 1.00797