LAMMPS data file via write_data, version 12 Jun 2025, timestep = 5585, units = real

468 atoms
12 atom types
492 bonds
20 bond types
872 angles
40 angle types
1168 dihedrals
52 dihedral types
432 impropers
31 improper types

-8.220928863686698 8.220928863686698 xlo xhi
-8.220928863686698 8.220928863686698 ylo yhi
-8.220928863686698 8.220928863686698 zlo zhi

Atom Type Labels

1 c1
2 c2
3 c3
4 c3h
5 cp
6 hc
7 hn
8 ho2
9 nn
10 o3e
11 oc
12 oh

Bond Type Labels

1 c1-c2
2 c1-hc
3 c1-oh
4 c2-hc
5 c2-cp
6 c2-c3h
7 c2-nn
8 c2-oc
9 c2-c3
10 c3-hc
11 c3-cp
12 c3h-o3e
13 c3h-hc
14 c3h-c3h
15 cp-nn
16 cp-oc
17 cp-hc
18 cp-cp
19 hn-nn
20 ho2-oh

Angle Type Labels

1 c1-c2-hc
2 c1-c2-nn
3 c1-c2-oc
4 c1-oh-ho2
5 c2-c1-c2
6 c2-c1-hc
7 c2-c1-oh
8 c2-c3-hc
9 c2-c3h-c3h
10 c2-c3h-hc
11 c2-c3h-o3e
12 c2-cp-cp
13 c2-nn-c2
14 c2-nn-cp
15 c2-nn-hn
16 c2-oc-cp
17 c3-c2-cp
18 c3-c2-hc
19 c3-cp-cp
20 c3h-c2-hc
21 c3h-c2-oc
22 c3h-c3h-hc
23 c3h-c3h-o3e
24 c3h-o3e-c3h
25 cp-c2-cp
26 cp-c2-hc
27 cp-c3-hc
28 cp-cp-cp
29 cp-cp-hc
30 cp-cp-nn
31 cp-cp-oc
32 cp-nn-hn
33 hc-c1-oh
34 hc-c2-hc
35 hc-c2-nn
36 hc-c2-oc
37 hc-c3-hc
38 hc-c3h-hc
39 hc-c3h-o3e
40 hn-nn-hn

Dihedral Type Labels

1 c1-c2-nn-c2
2 c1-c2-nn-cp
3 c1-c2-nn-hn
4 c1-c2-oc-cp
5 c2-c1-c2-hc
6 c2-c1-c2-nn
7 c2-c1-c2-oc
8 c2-c1-oh-ho2
9 c2-c3h-c3h-hc
10 c2-c3h-c3h-o3e
11 c2-c3h-o3e-c3h
12 c2-cp-cp-cp
13 c2-cp-cp-hc
14 c2-cp-cp-nn
15 c3-c2-cp-cp
16 c3-cp-cp-cp
17 c3-cp-cp-nn
18 c3h-c2-oc-cp
19 c3h-c3h-c2-hc
20 c3h-c3h-c2-oc
21 cp-c2-c3-hc
22 cp-c2-cp-cp
23 cp-cp-cp-cp
24 cp-cp-cp-hc
25 cp-cp-cp-nn
26 cp-cp-cp-oc
27 cp-cp-nn-c2
28 cp-cp-nn-hn
29 cp-cp-oc-c2
30 hc-c1-c2-hc
31 hc-c1-c2-nn
32 hc-c1-c2-oc
33 hc-c1-oh-ho2
34 hc-c2-c1-oh
35 hc-c2-c3-hc
36 hc-c2-c3h-hc
37 hc-c2-c3h-o3e
38 hc-c2-cp-cp
39 hc-c2-nn-c2
40 hc-c2-nn-cp
41 hc-c2-nn-hn
42 hc-c2-oc-cp
43 hc-c3-cp-cp
44 hc-c3h-c2-oc
45 hc-c3h-c3h-hc
46 hc-c3h-c3h-o3e
47 hc-c3h-o3e-c3h
48 hc-cp-cp-hc
49 hc-cp-cp-oc
50 nn-c2-c1-oh
51 o3e-c3h-c2-oc
52 oc-c2-c1-oh

Improper Type Labels

1 c2-cp-cp-cp-nb==3
2 c2-nn-c2-cp-nb==3
3 c2-nn-cp-hn-nb==3
4 c3-cp-cp-cp-nb==3
5 cp-cp-cp-hc-nb==3
6 cp-cp-cp-nn-nb==3
7 cp-cp-cp-oc-nb==3
8 cp-nn-hn-hn-nb==3
9 c1-c2-hc-hc-nb!=3
10 c1-c2-hc-nn-nb!=3
11 c1-c2-hc-oc-nb!=3
12 c2-c1-c2-hc-nb!=3
13 c2-c1-c2-oh-nb!=3
14 c2-c1-hc-oh-nb!=3
15 c2-c3-hc-hc-nb!=3
16 c2-c3h-c3h-hc-nb!=3
17 c2-c3h-c3h-o3e-nb!=3
18 c2-c3h-hc-o3e-nb!=3
19 c3-c2-cp-hc-nb!=3
20 c3-c2-hc-hc-nb!=3
21 c3h-c2-hc-hc-nb!=3
22 c3h-c2-hc-oc-nb!=3
23 c3h-c3h-hc-hc-nb!=3
24 c3h-c3h-hc-o3e-nb!=3
25 cp-c2-cp-hc-nb!=3
26 cp-c2-hc-hc-nb!=3
27 cp-c3-hc-hc-nb!=3
28 hc-c2-hc-nn-nb!=3
29 hc-c2-hc-oc-nb!=3
30 hc-c3-hc-hc-nb!=3
31 hc-c3h-hc-o3e-nb!=3

Masses

1 12.01115
2 12.01115
3 12.01115
4 12.01115
5 12.01115
6 1.00797
7 1.00797
8 1.008
9 14.0067
10 15.9994
11 15.9994
12 15.9994

Pair Coeffs # lj/class2/coul/long

1 0.054 4.01
2 0.054 4.01
3 0.054 3.9
4 0.054 4.01
5 0.064 4.01
6 0.02 2.995
7 0.013 1.098
8 0.013 1.11
9 0.065 4.07
10 0.24 3.535
11 0.24 3.535
12 0.24 3.535

Bond Coeffs # class2

1 1.53 299.67 -501.77 679.81
2 1.101 345 -691.89 844.6
3 1.42 400.395 -835.195 1313.01
4 1.101 345 -691.89 844.6
5 1.501 321.902 -521.821 572.163
6 1.53 299.67 -501.77 679.81
7 1.47 356.599 0 0
8 1.42 400.395 -835.195 1313.01
9 1.53 299.67 -501.77 679.81
10 1.101 345 -691.89 844.6
11 1.501 321.902 -521.821 572.163
12 1.42 400.395 -835.195 1313.01
13 1.101 345 -691.89 844.6
14 1.53 299.67 -501.77 679.81
15 1.3912 447.044 -784.535 886.167
16 1.3768 428.88 -738.235 1114.97
17 1.0982 372.825 -803.453 894.317
18 1.417 470.836 -627.618 1327.63
19 1.0012 465.861 -1066.24 1496.56
20 0.96 493.848 0 0

Angle Coeffs # class2

1 110.77 41.453 -10.604 5.129
2 114 50 0 0
3 111.27 54.5381 -8.3642 -13.0838
4 109 58.5 0 0
5 112.67 39.516 -7.443 -9.5583
6 110.77 41.453 -10.604 5.129
7 111.27 54.5381 -8.3642 -13.0838
8 110.77 41.453 -10.604 5.129
9 112.67 39.516 -7.443 -9.5583
10 110.77 41.453 -10.604 5.129
11 111.27 54.5381 -8.3642 -13.0838
12 120.05 44.7148 -22.7352 0
13 120 50 0 0
14 120 50 0 0
15 122 35 0 0
16 102.969 38.9739 -6.2595 -8.171
17 108.4 43.9594 -8.3924 -9.3379
18 110.77 41.453 -10.604 5.129
19 120.05 44.7148 -22.7352 0
20 110.77 41.453 -10.604 5.129
21 111.27 54.5381 -8.3642 -13.0838
22 110.77 41.453 -10.604 5.129
23 111.27 54.5381 -8.3642 -13.0838
24 104.5 35.7454 -10.0067 -6.2729
25 111 44.3234 -9.4454 0
26 111 44.3234 -9.4454 0
27 111 44.3234 -9.4454 0
28 118.9 61.0226 -34.9931 0
29 117.94 35.1558 -12.4682 0
30 121.458 61.0647 -21.6172 0
31 123.42 73.6781 -21.6787 0
32 111.873 40.8369 -15.6673 0
33 108.728 58.5446 -10.8088 -12.4006
34 107.66 39.641 -12.921 -2.4318
35 109.5 50 0 0
36 108.728 58.5446 -10.8088 -12.4006
37 107.66 39.641 -12.921 -2.4318
38 107.66 39.641 -12.921 -2.4318
39 108.728 58.5446 -10.8088 -12.4006
40 107.513 42.5182 -21.7566 -4.3372

BondBond Coeffs

1 3.3872 1.53 1.101
2 0 1.53 1.47
3 11.4318 1.53 1.42
4 0 1.42 0.96
5 0 1.53 1.53
6 3.3872 1.53 1.101
7 11.4318 1.53 1.42
8 3.3872 1.53 1.101
9 0 1.53 1.53
10 3.3872 1.53 1.101
11 11.4318 1.53 1.42
12 12.0676 1.501 1.417
13 0 1.47 1.47
14 0 1.47 1.3912
15 0 1.47 1.0012
16 0 1.42 1.3768
17 0 1.53 1.501
18 3.3872 1.53 1.101
19 12.0676 1.501 1.417
20 3.3872 1.53 1.101
21 11.4318 1.53 1.42
22 3.3872 1.53 1.101
23 11.4318 1.53 1.42
24 -7.1131 1.42 1.42
25 0 1.501 1.501
26 2.9168 1.501 1.101
27 2.9168 1.501 1.101
28 68.2856 1.417 1.417
29 1.0795 1.417 1.0982
30 46.9513 1.417 1.3912
31 48.4754 1.417 1.3768
32 4.5393 1.3912 1.0012
33 23.1979 1.101 1.42
34 5.3316 1.101 1.101
35 0 1.101 1.47
36 23.1979 1.101 1.42
37 5.3316 1.101 1.101
38 5.3316 1.101 1.101
39 23.1979 1.101 1.42
40 -9.9447 1.0012 1.0012

BondAngle Coeffs

1 20.754 11.421 1.53 1.101
2 0 0 1.53 1.47
3 2.6868 20.4033 1.53 1.42
4 0 0 1.42 0.96
5 8.016 8.016 1.53 1.53
6 20.754 11.421 1.53 1.101
7 2.6868 20.4033 1.53 1.42
8 20.754 11.421 1.53 1.101
9 8.016 8.016 1.53 1.53
10 20.754 11.421 1.53 1.101
11 2.6868 20.4033 1.53 1.42
12 47.0579 31.0771 1.501 1.417
13 0 0 1.47 1.47
14 0 0 1.47 1.3912
15 0 0 1.47 1.0012
16 0 0 1.42 1.3768
17 0 0 1.53 1.501
18 20.754 11.421 1.53 1.101
19 47.0579 31.0771 1.501 1.417
20 20.754 11.421 1.53 1.101
21 2.6868 20.4033 1.53 1.42
22 20.754 11.421 1.53 1.101
23 2.6868 20.4033 1.53 1.42
24 -2.8112 -2.8112 1.42 1.42
25 0 0 1.501 1.501
26 26.4608 11.7717 1.501 1.101
27 26.4608 11.7717 1.501 1.101
28 28.8708 28.8708 1.417 1.417
29 20.0033 24.2183 1.417 1.0982
30 39.404 73.6548 1.417 1.3912
31 58.479 107.681 1.417 1.3768
32 38.5704 16.5524 1.3912 1.0012
33 4.6189 55.327 1.101 1.42
34 18.103 18.103 1.101 1.101
35 0 0 1.101 1.47
36 4.6189 55.327 1.101 1.42
37 18.103 18.103 1.101 1.101
38 18.103 18.103 1.101 1.101
39 4.6189 55.327 1.101 1.42
40 17.1597 17.1597 1.0012 1.0012

Dihedral Coeffs # class2

1 0 0 0 0 0 0
2 0 0 0 0 0 0
3 0 0 0 0 0 0
4 0 0 0 0 0.13 0
5 0 0 0.0316 0 -0.1681 0
6 0 0 0 0 0.158 0
7 0.7137 0 0.266 0 -0.2545 0
8 0 0 0 0 0.13 0
9 0 0 0.0316 0 -0.1681 0
10 0.7137 0 0.266 0 -0.2545 0
11 -0.5203 0 -0.3028 0 -0.345 0
12 0 0 4.4072 0 0 0
13 0 0 1.559 0 0 0
14 0 0 3 0 0 0
15 -0.2802 0 -0.0678 0 -0.0122 0
16 0 0 4.4072 0 0 0
17 0 0 3 0 0 0
18 0 0 0 0 0.13 0
19 0 0 0.0316 0 -0.1681 0
20 0.7137 0 0.266 0 -0.2545 0
21 -0.0228 0 0.028 0 -0.1863 0
22 -0.2802 0 -0.0678 0 -0.0122 0
23 8.3667 0 1.1932 0 0 0
24 0 0 3.9661 0 0 0
25 0 0 5.3826 0 0 0
26 0 0 4.8498 0 0 0
27 0 0 2.25 0 0 0
28 0 0 1.219 0 0 0
29 0 0 1.5 0 0 0
30 -0.1432 0 0.0617 0 -0.1083 0
31 0 0 0 0 0.158 0
32 -0.1435 0 0.253 0 -0.0905 0
33 0 0 0 0 0.13 0
34 -0.1435 0 0.253 0 -0.0905 0
35 -0.1432 0 0.0617 0 -0.1083 0
36 -0.1432 0 0.0617 0 -0.1083 0
37 -0.1435 0 0.253 0 -0.0905 0
38 -0.2801 0 -0.0678 0 -0.0122 0
39 0 0 0 0 0 0
40 0 0 0 0 0 0
41 0 0 0 0 0 0
42 0.9513 0 0.1155 0 0.072 0
43 -0.2801 0 -0.0678 0 -0.0122 0
44 -0.1435 0 0.253 0 -0.0905 0
45 -0.1432 0 0.0617 0 -0.1083 0
46 -0.1435 0 0.253 0 -0.0905 0
47 0.5302 0 0 0 -0.3966 0
48 0 0 1.8769 0 0 0
49 0 0 1.7234 0 0 0
50 0 0 0 0 0.158 0
51 -0.182 0 -0.1084 0 -0.7047 0
52 -0.182 0 -0.1084 0 -0.7047 0

AngleAngleTorsion Coeffs

1 0 114 120
2 0 114 120
3 0 114 122
4 0 111.27 102.969
5 -16.164 112.67 110.77
6 0 112.67 114
7 -29.042 112.67 111.27
8 0 111.27 109
9 -16.164 112.67 110.77
10 -29.042 112.67 111.27
11 -19.0059 111.27 104.5
12 -14.4097 120.05 118.9
13 4.4444 120.05 117.94
14 0 120.05 121.458
15 0 108.4 120.05
16 -14.4097 120.05 118.9
17 0 120.05 121.458
18 0 111.27 102.969
19 -16.164 112.67 110.77
20 -29.042 112.67 111.27
21 0 108.4 110.77
22 0 111 120.05
23 0 118.9 118.9
24 -4.8141 118.9 117.94
25 0 118.9 121.458
26 -21.0247 118.9 123.42
27 0 121.458 120
28 -7.1755 121.458 111.872
29 0 123.42 102.969
30 -12.564 110.77 110.77
31 0 110.77 114
32 -20.2006 110.77 111.27
33 0 108.728 109
34 -20.2006 110.77 111.27
35 -12.564 110.77 110.77
36 -12.564 110.77 110.77
37 -20.2006 110.77 111.27
38 -5.8888 111 120.05
39 0 109.5 120
40 0 109.5 120
41 0 109.5 122
42 0 108.728 102.969
43 -5.8888 111 120.05
44 -20.2006 110.77 111.27
45 -12.564 110.77 110.77
46 -20.2006 110.77 111.27
47 -16.4438 108.728 104.5
48 0.3598 117.94 117.94
49 4.2296 117.94 123.42
50 0 114 111.27
51 -14.0484 111.27 111.27
52 -14.0484 111.27 111.27

EndBondTorsion Coeffs

1 0 0 0 0 0 0 1.53 1.47
2 0 0 0 0 0 0 1.53 1.3912
3 0 0 0 0 0 0 1.53 1.0012
4 0 0 0 0 0 0 1.53 1.3768
5 0.2486 0.2422 -0.0925 0.0814 0.0591 0.2219 1.53 1.101
6 0 0 0 0 0 0 1.53 1.47
7 -0.319 0.4411 -0.7174 1.1538 0.8409 -0.9138 1.53 1.42
8 0 0 0 0 0 0 1.53 0.96
9 0.2486 0.2422 -0.0925 0.0814 0.0591 0.2219 1.53 1.101
10 -0.319 0.4411 -0.7174 1.1538 0.8409 -0.9138 1.53 1.42
11 -0.2456 1.0517 -0.7795 0.4741 1.2635 0.5576 1.53 1.42
12 0 0.2421 0 0 -0.6918 0 1.501 1.417
13 0 -1.797 0 0 -0.4879 0 1.501 1.0982
14 0 0 0 0 0 0 1.501 1.3912
15 0 0 0 0 0 0 1.53 1.417
16 0 0.2421 0 0 -0.6918 0 1.501 1.417
17 0 0 0 0 0 0 1.501 1.3912
18 0 0 0 0 0 0 1.53 1.3768
19 0.2486 0.2422 -0.0925 0.0814 0.0591 0.2219 1.53 1.101
20 -0.319 0.4411 -0.7174 1.1538 0.8409 -0.9138 1.53 1.42
21 0 0 0 0 0 0 1.501 1.101
22 0 0 0 0 0 0 1.501 1.417
23 -0.1185 6.3204 0 -0.1185 6.3204 0 1.417 1.417
24 0 -6.8958 0 0 -0.4669 0 1.417 1.0982
25 0 -6.5404 0 0 -7.3477 0 1.417 1.3912
26 0 0.2655 0 0 4.8905 0 1.417 1.3768
27 0 0 0 0 0 0 1.417 1.47
28 0 -3.7281 0 0 0.2849 0 1.417 1.0012
29 0 0 0 0 0 0 1.417 1.42
30 0.213 0.312 0.0777 0.213 0.312 0.0777 1.101 1.101
31 0 0 0 0 0 0 1.101 1.47
32 0.9681 0.9551 0.0436 0.5903 0.6669 0.8584 1.101 1.42
33 0 0 0 0 0 0 1.101 0.96
34 0.9681 0.9551 0.0436 0.5903 0.6669 0.8584 1.101 1.42
35 0.213 0.312 0.0777 0.213 0.312 0.0777 1.101 1.101
36 0.213 0.312 0.0777 0.213 0.312 0.0777 1.101 1.101
37 0.9681 0.9551 0.0436 0.5903 0.6669 0.8584 1.101 1.42
38 1.3997 0.7756 0 -0.5835 1.122 0.3978 1.101 1.417
39 0 0 0 0 0 0 1.101 1.47
40 0 0 0 0 0 0 1.101 1.3912
41 0 0 0 0 0 0 1.101 1.0012
42 0 0 0 0 0 0 1.101 1.3768
43 1.3997 0.7756 0 -0.5835 1.122 0.3978 1.101 1.417
44 0.9681 0.9551 0.0436 0.5903 0.6669 0.8584 1.101 1.42
45 0.213 0.312 0.0777 0.213 0.312 0.0777 1.101 1.101
46 0.9681 0.9551 0.0436 0.5903 0.6669 0.8584 1.101 1.42
47 -0.6054 1.3339 0.9648 -0.162 0.1564 -1.1408 1.101 1.42
48 0 -0.689 0 0 -0.689 0 1.0982 1.0982
49 0 -1.5867 0 0 4.2641 0 1.0982 1.3768
50 0 0 0 0 0 0 1.47 1.42
51 1.0165 0.7553 -0.4609 1.0165 0.7553 -0.4609 1.42 1.42
52 1.0165 0.7553 -0.4609 1.0165 0.7553 -0.4609 1.42 1.42

MiddleBondTorsion Coeffs

1 0 0 0 1.47
2 0 0 0 1.47
3 0 0 0 1.47
4 0 0 0 1.42
5 -14.879 -3.6581 -0.3138 1.53
6 0 0 0 1.53
7 -21.8842 -7.6764 -0.6868 1.53
8 0 0 0 1.42
9 -14.879 -3.6581 -0.3138 1.53
10 -21.8842 -7.6764 -0.6868 1.53
11 -5.9288 -2.7007 -0.3175 1.42
12 0 9.1792 0 1.417
13 0 3.9421 0 1.417
14 0 0 0 1.417
15 0 0 0 1.501
16 0 9.1792 0 1.417
17 0 0 0 1.417
18 0 0 0 1.42
19 -14.879 -3.6581 -0.3138 1.53
20 -21.8842 -7.6764 -0.6868 1.53
21 0 0 0 1.53
22 0 0 0 1.501
23 27.5989 -2.312 0 1.417
24 0 -1.1521 0 1.417
25 0 -0.5693 0 1.417
26 0 4.8255 0 1.417
27 0 0 0 1.3912
28 0 3.2085 0 1.3912
29 0 0 0 1.3768
30 -14.261 -0.5322 -0.4864 1.53
31 0 0 0 1.53
32 -16.7975 -1.2296 -0.275 1.53
33 0 0 0 1.42
34 -16.7975 -1.2296 -0.275 1.53
35 -14.261 -0.5322 -0.4864 1.53
36 -14.261 -0.5322 -0.4864 1.53
37 -16.7975 -1.2296 -0.275 1.53
38 -5.5679 1.4083 0.301 1.501
39 0 0 0 1.47
40 0 0 0 1.47
41 0 0 0 1.47
42 0 0 0 1.42
43 -5.5679 1.4083 0.301 1.501
44 -16.7975 -1.2296 -0.275 1.53
45 -14.261 -0.5322 -0.4864 1.53
46 -16.7975 -1.2296 -0.275 1.53
47 -6.8007 -4.6546 -1.4101 1.42
48 0 4.8228 0 1.417
49 0 5.5432 0 1.417
50 0 0 0 1.53
51 -17.2585 -3.6157 -0.8364 1.53
52 -17.2585 -3.6157 -0.8364 1.53

BondBond13 Coeffs

1 0 1.53 1.47
2 0 1.53 1.3912
3 0 1.53 1.0012
4 0 1.53 1.3768
5 0 1.53 1.101
6 0 1.53 1.47
7 0 1.53 1.42
8 0 1.53 0.96
9 0 1.53 1.101
10 0 1.53 1.42
11 0 1.53 1.42
12 2.5085 1.501 1.417
13 0.8743 1.501 1.0982
14 0 1.501 1.3912
15 0 1.53 1.417
16 2.5085 1.501 1.417
17 0 1.501 1.3912
18 0 1.53 1.3768
19 0 1.53 1.101
20 0 1.53 1.42
21 0 1.501 1.101
22 0 1.501 1.417
23 53 1.417 1.417
24 -6.2741 1.417 1.0982
25 -9.7999 1.417 1.3912
26 -2.2436 1.417 1.3768
27 0 1.417 1.47
28 4.2366 1.417 1.0012
29 0 1.417 1.42
30 0 1.101 1.101
31 0 1.101 1.47
32 0 1.101 1.42
33 0 1.101 0.96
34 0 1.101 1.42
35 0 1.101 1.101
36 0 1.101 1.101
37 0 1.101 1.42
38 -3.4826 1.101 1.417
39 0 1.101 1.47
40 0 1.101 1.3912
41 0 1.101 1.0012
42 0 1.101 1.3768
43 -3.4826 1.101 1.417
44 0 1.101 1.42
45 0 1.101 1.101
46 0 1.101 1.42
47 0 1.101 1.42
48 -1.7077 1.0982 1.0982
49 2.0517 1.0982 1.3768
50 0 1.47 1.42
51 0 1.42 1.42
52 0 1.42 1.42

AngleTorsion Coeffs

1 0 0 0 0 0 0 114 120
2 0 0 0 0 0 0 114 120
3 0 0 0 0 0 0 114 122
4 0 0 0 0 0 0 111.27 102.969
5 -0.2454 0 -0.1136 0.3113 0.4516 -0.1988 112.67 110.77
6 0 0 0 0 0 0 112.67 114
7 0.5623 -0.3041 -0.4015 0.9672 -0.7566 -1.2331 112.67 111.27
8 0 0 0 0 0 0 111.27 109
9 -0.2454 0 -0.1136 0.3113 0.4516 -0.1988 112.67 110.77
10 0.5623 -0.3041 -0.4015 0.9672 -0.7566 -1.2331 112.67 111.27
11 -2.7466 1.4877 -0.8955 0.5676 0.945 0.0703 111.27 104.5
12 0 -4.4683 0 0 3.8987 0 120.05 118.9
13 0 -0.1242 0 0 3.4601 0 120.05 117.94
14 0 0 0 0 0 0 120.05 121.458
15 0 0 0 0 0 0 108.4 120.05
16 0 -4.4683 0 0 3.8987 0 120.05 118.9
17 0 0 0 0 0 0 120.05 121.458
18 0 0 0 0 0 0 111.27 102.969
19 -0.2454 0 -0.1136 0.3113 0.4516 -0.1988 112.67 110.77
20 0.5623 -0.3041 -0.4015 0.9672 -0.7566 -1.2331 112.67 111.27
21 0 0 0 0 0 0 108.4 110.77
22 0 0 0 0 0 0 111 120.05
23 1.9767 1.0239 0 1.9767 1.0239 0 118.9 118.9
24 0 2.5014 0 0 2.7147 0 118.9 117.94
25 0 9.0901 0 0 -6.0882 0 118.9 121.458
26 0 10.0155 0 0 1.7404 0 118.9 123.42
27 0 0 0 0 0 0 121.458 120
28 0 1.2616 0 0 0.7744 0 121.458 111.872
29 0 0 0 0 0 0 123.42 102.969
30 -0.8085 0.5569 -0.2466 -0.8085 0.5569 -0.2466 110.77 110.77
31 0 0 0 0 0 0 110.77 114
32 2.3668 2.492 -1.0122 -0.1892 0.4918 0.7273 110.77 111.27
33 0 0 0 0 0 0 108.728 109
34 2.3668 2.492 -1.0122 -0.1892 0.4918 0.7273 110.77 111.27
35 -0.8085 0.5569 -0.2466 -0.8085 0.5569 -0.2466 110.77 110.77
36 -0.8085 0.5569 -0.2466 -0.8085 0.5569 -0.2466 110.77 110.77
37 2.3668 2.492 -1.0122 -0.1892 0.4918 0.7273 110.77 111.27
38 4.6266 0.1632 0.0461 0.2251 0.6548 0.1237 111 120.05
39 0 0 0 0 0 0 109.5 120
40 0 0 0 0 0 0 109.5 120
41 0 0 0 0 0 0 109.5 122
42 0 0 0 0 0 0 108.728 102.969
43 4.6266 0.1632 0.0461 0.2251 0.6548 0.1237 111 120.05
44 2.3668 2.492 -1.0122 -0.1892 0.4918 0.7273 110.77 111.27
45 -0.8085 0.5569 -0.2466 -0.8085 0.5569 -0.2466 110.77 110.77
46 2.3668 2.492 -1.0122 -0.1892 0.4918 0.7273 110.77 111.27
47 -1.8234 1.6393 0.5144 -0.7777 0.434 -0.6653 108.728 104.5
48 0 2.4501 0 0 2.4501 0 117.94 117.94
49 0 1.8729 0 0 2.5706 0 117.94 123.42
50 0 0 0 0 0 0 114 111.27
51 0.5511 0.9737 -0.6673 0.5511 0.9737 -0.6673 111.27 111.27
52 0.5511 0.9737 -0.6673 0.5511 0.9737 -0.6673 111.27 111.27

Improper Coeffs # class2

1 7.8153 0
2 0.1 0
3 0.1 0
4 7.8153 0
5 4.8912 0
6 10.7855 0
7 13.0421 0
8 0 0
9 0 0
10 0 0
11 0 0
12 0 0
13 0 0
14 0 0
15 0 0
16 0 0
17 0 0
18 0 0
19 0 0
20 0 0
21 0 0
22 0 0
23 0 0
24 0 0
25 0 0
26 0 0
27 0 0
28 0 0
29 0 0
30 0 0
31 0 0

AngleAngle Coeffs

1 0 0 0 120.05 118.9 120.05
2 0 0 0 120 120 120
3 0 0 0 120 111.872 122
4 0 0 0 120.05 118.9 120.05
5 0 0 0 118.9 117.94 117.94
6 0 0 0 118.9 121.458 121.458
7 0 0 0 118.9 123.42 123.42
8 0 0 0 111.872 107.513 111.872
9 0.2738 -0.4825 0.2738 110.77 110.77 107.66
10 0 0 0 110.77 109.5 114
11 3.9177 2.5926 0.1689 110.77 111.27 108.728
12 -1.3199 -1.3199 0.1184 112.67 110.77 110.77
13 -0.833 -0.833 -3.5744 112.67 111.27 111.27
14 3.9177 2.5926 0.1689 110.77 111.27 108.728
15 0.2738 -0.4825 0.2738 110.77 110.77 107.66
16 -1.3199 -1.3199 0.1184 112.67 110.77 110.77
17 -0.833 -0.833 -3.5744 112.67 111.27 111.27
18 3.9177 2.5926 0.1689 110.77 111.27 108.728
19 2.0403 -1.8202 1.0827 108.4 110.77 111
20 0.2738 -0.4825 0.2738 110.77 110.77 107.66
21 0.2738 -0.4825 0.2738 110.77 110.77 107.66
22 3.9177 2.5926 0.1689 110.77 111.27 108.728
23 0.2738 -0.4825 0.2738 110.77 110.77 107.66
24 3.9177 2.5926 0.1689 110.77 111.27 108.728
25 0 0 0 111 111 111
26 2.3794 3.0118 2.3794 111 111 107.66
27 2.3794 3.0118 2.3794 111 111 107.66
28 0 0 0 107.66 109.5 109.5
29 2.4259 2.4259 2.1283 107.66 108.728 108.728
30 -0.3157 -0.3157 -0.3157 107.66 107.66 107.66
31 2.4259 2.4259 2.1283 107.66 108.728 108.728

Atoms # full

388 10 9 -0.5800999999999999 -3.605991601411805 -3.7916837526238893 -7.465094127809611 0 0 0
406 10 7 0.2487 -2.808609473533549 -4.3788585162707365 -7.3252679732730765 0 0 0
405 10 7 0.2487 -4.263642318987306 -4.224950276883149 -8.07728476479421 0 0 0
376 10 5 0 -3.3776736516295354 -3.2274263459073556 -5.1107822964616005 0 0 0
377 10 5 0.0827 -4.191680533619814 -3.3946921858530814 -6.244936159942293 0 0 0
396 10 6 0.053 -7.396857772291778 -3.985077718631446 -6.989464063527608 0 0 0
398 10 6 0.053 -7.655827860294017 -1.564787402370509 -7.287702291267074 0 0 0
378 10 5 0 -5.5726159249074945 -3.1817793269842576 -6.174286854131889 0 0 0
384 10 2 -0.106 -6.515870896393367 -3.423463842590978 -7.33680833399446 0 0 0
379 10 5 -0.1268 -6.096612378697228 -2.765321108714671 -4.964945573019489 0 0 0
389 10 6 0.1268 -7.177245894806322 -2.5622165694838137 -4.916119346467904 0 0 0
380 10 5 0 -5.3522264663666945 -2.611063201692593 -3.810528007542076 0 0 0
391 10 6 0.053 -7.1091764006662785 -1.991445084515264 -2.718698860707556 0 0 0
393 10 6 0.053 -6.630487551873909 -3.1545292295473564 -0.6143712933571127 0 0 0
2 1 4 0.027 -1.4655868652669395 -5.294218681970888 -2.109729209882743 0 0 0
24 1 6 0.053 -1.256944256651728 -5.857318820509887 -3.02287699794477 0 0 0
386 10 3 -0.159 -1.8895426334255276 -3.5083647763793575 -5.196545223631938 0 0 0
400 10 6 0.053 -1.4526229827571717 -3.173962827235733 -6.148834810511031 0 0 0
402 10 6 0.053 -1.6839764898830416 -4.586789717520788 -5.099584031292249 0 0 0
403 10 7 0.2487 -2.2452375771074 -2.358679040823306 -2.939204491474319 0 0 0
284 7 6 0.053 -6.4068162810494425 -5.286154983937486 -4.044299047023447 0 1 0
401 10 6 0.053 -1.324675481637836 -2.9905713717671527 -4.411120381133961 0 0 0
381 10 5 0.0827 -3.9734900481193947 -2.836105629656326 -3.8965536528892604 0 0 0
394 10 6 0.053 -6.305994751692127 -4.314124398125417 -1.9134214533245737 0 0 0
390 10 6 0.053 -5.6159667676831555 -1.298855231656525 -2.1022830205574663 0 0 0
382 10 2 -0.106 -6.052775170549679 -2.2221081089104766 -2.5199060452051634 0 0 0
383 10 3 -0.159 -5.986324037077483 -3.3555058976423773 -1.4826645152549327 0 0 0
392 10 6 0.053 -4.967743312680899 -3.50249857259871 -1.0942266584464961 0 0 0
387 10 9 -0.5800999999999999 -3.1802828446790663 -2.6542532269893035 -2.747867610101509 0 0 0
404 10 7 0.2487 -3.6088239996917038 -2.056027629081151 -2.067423089517824 0 0 0
1 1 10 -0.266 -0.8101388894145214 -5.726209081345393 -0.9177159484249124 0 0 0
25 1 6 0.053 -2.530275391780376 -5.060836152136252 -1.999581692272157 0 0 0
262 7 2 0.027 -7.3129542837950074 -6.986223983952198 -5.185499686345108 0 1 0
286 7 6 0.053 -6.332509112492013 -7.046911118542292 -5.683743680978062 0 1 0
261 7 4 0.08 -7.378822579123525 -5.737755425901349 -4.279655240089905 0 1 0
161 4 6 0.1268 -2.9507185636284428 -7.574963141737883 -4.556511560628524 1 1 1
140 4 5 -0.1268 -2.7468455498671656 -7.7382985071947346 -5.624781713530958 1 1 1
154 4 6 0.053 0.1999792286082482 -6.98589311730683 -6.91009478738272 1 1 1
385 10 3 -0.159 -6.9550104853856185 -2.0948019800682705 -7.950846231445585 0 0 0
366 9 6 0.053 -1.6931652847263483 -0.902054834407265 -5.937171685434692 0 0 1
5 1 11 -0.1595 -0.17322622078493796 -2.065942203994467 -1.405769922384104 0 0 0
395 10 6 0.053 -6.067638747513802 -4.056668205696238 -8.112307447263207 0 0 0
399 10 6 0.053 -6.083102174396473 -1.4501399611690517 -8.137078234903042 0 0 0
139 4 5 -0.1268 -3.5438169205601397 -7.100816375151276 -6.560015829902793 1 1 1
160 4 6 0.1268 -4.325214276913197 -6.413016468870296 -6.207351404665375 1 1 1
138 4 5 0 -3.386964863282487 -7.312548723911886 -7.926814339940229 1 1 1
4 1 2 0.027 -0.6833969866740004 -3.1950285814207393 -0.6824591968555846 0 0 0
131 4 4 0.027 0.807143001343439 -6.74496547474836 -6.037098861330542 1 1 1
132 4 4 0.08 0.6443652604333058 -7.35148906158882 -4.709165575874838 1 1 1
71 2 6 0.053 -6.691886047299238 0.13337452279760045 -6.4135552069940065 0 0 0
75 2 6 0.1268 -4.996988696600142 -0.09680948982414245 -5.390341289020356 0 0 0
74 2 6 0.1268 -3.2434727256674676 -0.22255144833231155 -3.7395985082054537 0 0 0
289 7 6 0.1268 -5.539281143049779 -8.051016780210995 -0.4354459036377077 0 1 0
269 7 5 -0.1268 -6.544377843819319 -8.06559982874267 -2.3319210986775936 0 1 0
290 7 6 0.1268 -7.370995317327414 -7.4493655583467495 -1.9519811157014617 0 1 0
354 9 3 -0.159 -2.1163471327675745 -0.08048395254196138 -6.533783661151953 0 0 1
137 4 5 -0.1268 -2.3481325916041498 -8.142262830600359 8.104416001122006 1 1 0
213 5 6 0.053 -8.008379759542057 -5.63120511379745 -0.028555834905795968 1 0 0
27 1 6 0.053 -1.7520989059943275 -3.032265060723216 -0.4788107582398013 0 0 0
3 1 4 0.08 -0.42255398171954267 -4.463593051316488 -1.491281753254845 0 0 0
433 11 6 0.053 7.180049357525509 -5.23367006314798 -7.071211283959416 0 1 0
260 7 4 0.027 7.948091069563627 -5.4912478000786615 -3.352123047649978 -1 1 0
259 7 10 -0.266 8.011994980709535 -4.796855762351689 -4.58718228468437 -1 1 0
282 7 6 0.053 8.086510653613718 -4.89172075803095 -2.447339706112512 -1 1 0
283 7 6 0.053 7.129754269491589 -6.204041558037571 -3.249529813225804 -1 1 0
285 7 6 0.053 -8.058689529915783 -6.891363805873907 -5.988305274542367 0 1 0
6 1 5 0.0265 0.24903335585605704 -0.9819640692103075 -0.6626927306035162 0 0 0
26 1 6 0.053 0.5949869667707047 -4.473982211594024 -1.8944495706564444 0 0 0
431 11 6 0.053 6.780950414734206 -3.5108214123156376 -7.264117849118452 0 1 0
130 4 10 -0.266 1.7272781842733507 -7.734648505096938 -5.58290515830898 1 1 1
324 8 10 -0.266 4.136809588640689 -1.9722896854559353 -6.3981698032070256 -1 0 0
412 11 5 0.0827 4.324970721007607 -5.609502062456167 8.214390690900023 0 1 -1
418 11 9 -0.5800999999999999 3.8853400597683936 -5.9785993485840985 -6.937888505670793 0 1 0
435 11 7 0.2487 3.287383014086104 -6.780835837292639 -6.9728187318838 0 1 0
321 8 2 0.027 6.17330826196897 -1.6946924586168364 -4.944514095467446 -1 0 0
340 8 6 0.053 6.695246138813893 -2.607104510119238 -5.263449510261163 -1 0 0
342 8 6 0.053 5.881862871051385 -0.8543766363856645 -6.957365871830829 -1 0 0
322 8 4 0.08 5.296418218233306 -1.174900008988974 -6.085004584594087 -1 0 0
320 8 11 -0.1595 7.184881953949345 -0.750244074532448 -4.578204750912303 -1 0 0
341 8 6 0.053 5.568005091184656 -1.9905563004244609 -4.078308776157228 -1 0 0
128 3 6 0.053 1.2685291818588058 -2.217169464315179 -5.417366292297467 -1 0 0
123 3 6 0.1268 2.948196570909641 -1.992044573947253 0.1059528915336899 -1 0 0
432 11 6 0.053 5.790568115336984 -4.524647739237375 -6.2259353142032 0 1 0
417 11 3 -0.159 6.350768277130949 -4.516211831203571 -7.1698256564250755 0 1 0
434 11 7 0.2487 4.658061345120566 -6.169343743582165 -6.329829781633064 0 1 0
103 3 5 -0.1268 4.0036201659071615 -2.157542344259343 -0.1630163103421678 -1 0 0
129 3 6 0.053 1.4076315167898883 -1.956912468852938 -3.625877354599639 -1 0 0
102 3 5 0.0265 4.326403130729954 -2.984597914326856 -1.249151719441924 -1 0 0
105 3 11 -0.1595 3.2885516188388553 -3.5394292744238833 -1.977762808931648 -1 0 0
108 3 4 0.027 1.5462860977535264 -2.6569190821367767 -4.452654808668393 -1 0 0
125 3 6 0.053 4.489581341845263 -3.8950566456693294 -3.6630346603009682 -1 0 0
106 3 2 0.027 3.497912761180372 -4.138634558405292 -3.2578029974421265 -1 0 0
107 3 4 0.08 2.5229472309940286 -3.7551149879491312 -4.404868511391984 -1 0 0
127 3 6 0.053 2.9112990696216703 -4.125428758417459 -5.362495223606309 -1 0 0
323 8 4 0.027 3.9339817263834798 -0.653450684483979 -5.893467401715304 -1 0 0
214 5 6 0.053 6.0609220783415845 -4.880011703607378 0.6565050864599308 0 0 0
344 8 6 0.053 3.4893153652400812 -0.5769030202171713 -4.895315575220601 -1 0 0
153 4 6 0.053 1.2036511588981347 -5.727086118458955 -6.101097948518499 1 1 1
155 4 6 0.053 0.9729186824677879 -6.742823860909375 -3.857011940202716 1 1 1
327 8 6 0.053 3.739350844461785 -7.932489124264698 -4.182806915383278 -1 1 0
328 8 6 0.053 5.233792533980649 -6.981073192387738 -2.3585315467382464 -1 1 0
29 1 6 0.1268 1.70436233630608 -0.37219254786121087 -2.1664023025831756 0 0 0
101 3 5 -0.1268 5.686928653483547 -3.1879834270728984 -1.5197165087049622 -1 0 0
109 3 10 -0.266 1.113174269676721 -3.998240814172039 -4.23638914318934 -1 0 0
121 3 6 0.1268 7.712606748775057 -2.6460662200867686 -1.0543795634863082 -1 0 0
100 3 5 -0.1268 6.656704309135199 -2.5239821362660484 -0.7807162330600641 -1 0 0
126 3 6 0.053 3.4738841066519845 -5.23308075390797 -3.131396703586072 -1 0 0
122 3 6 0.1268 6.022190261530815 -3.851991035136631 -2.327259456852459 -1 0 0
21 1 4 0.08 2.200297991941487 -7.002414359886701 -0.5569775184946102 0 1 0
41 1 6 0.053 2.326966767409353 -6.11501454670193 -1.1885592016033404 0 1 0
337 8 6 0.1268 4.855366066281777 -0.2166421672910017 -3.1727366249135738 -1 0 0
317 8 5 0.0265 7.022660623452623 0.0047881120445125045 -3.434151651005464 -1 0 0
305 8 2 0.027 5.253746199707287 -8.051841532124998 -2.623096396801967 -1 1 0
407 11 5 0 5.507191434870203 -4.871094251266661 8.071694671330386 0 1 -1
42 1 6 0.053 4.035278041934945 -6.554452657049529 0.6244386389140358 0 1 0
22 1 4 0.027 3.194622278850506 -7.242332193346725 0.5013250066582957 0 1 0
425 11 6 0.053 3.1882421009571327 8.019814417662232 -7.856940168308313 0 0 0
205 5 6 0.053 5.313180116389385 -8.081337620051247 7.645777530605272 0 0 0
206 5 6 0.053 6.691483584972948 -7.547565263782256 -7.884573880113516 0 0 1
368 9 6 0.053 -3.1149764616382134 -0.39690283120649117 -6.87294547594385 0 0 1
134 4 11 -0.1595 -0.9509519448261137 7.125274180271974 -5.174767808463057 1 0 1
78 2 6 0.1268 -0.6127162543718107 0.1481214920624522 -3.5560474701590206 0 0 0
135 4 5 0.0265 -1.739975251563154 7.827916677716444 -6.049482258643484 1 0 1
157 4 6 0.053 -1.0455668243661058 -8.037376156210303 -3.552238943582287 1 1 1
133 4 2 0.027 -0.2973047830734834 7.953257130067673 -4.222731035501126 1 0 1
156 4 6 0.053 0.3118308729379211 7.283132271783138 -3.5983991642214224 1 0 1
287 7 6 0.1268 -5.467128392676455 6.7074527194742295 -5.094330341527502 0 0 0
263 7 11 -0.1595 -7.575192525889312 -8.21754816630328 -4.505728631658801 0 1 0
47 2 2 0.027 -6.771425499347128 1.1483244691510226 -6.825052983801835 0 0 0
72 2 6 0.1268 -5.999640138375505 3.884292498194575 -3.9382625558641977 0 0 0
48 2 11 -0.1595 -6.63344576335474 2.11475373582808 -5.776059900460191 0 0 0
49 2 5 0.0265 -5.653830998292937 1.9250614643500683 -4.820640411890187 0 0 0
50 2 5 -0.1268 -5.401863322158566 2.95885681269733 -3.904423637332924 0 0 0
51 2 5 -0.1268 -4.370007475243489 2.853354178536764 -2.9827709426837385 0 0 0
54 2 5 -0.1268 -4.876307972184844 0.7629051652230591 -4.719457989863708 0 0 0
53 2 5 -0.1268 -3.875217013868146 0.6730366667232757 -3.769566705934756 0 0 0
73 2 6 0.1268 -4.143218677203278 3.7001884698977845 -2.32288249304935 0 0 0
52 2 5 0 -3.5753941641748113 1.7144472940820752 -2.903575194720954 0 0 0
55 2 2 -0.106 -2.3460772744148635 1.6349439051345904 -2.0361105448952097 0 0 0
76 2 6 0.053 -2.44223949203177 2.2618299037453324 -1.1406656513837472 0 0 0
81 2 6 0.1268 -1.5676841021638974 4.176758954839077 -2.459913416117393 0 0 0
56 2 5 0 -1.2064197786485198 2.1072778550590208 -2.8994439815443798 0 0 0
77 2 6 0.053 -2.1805826066557654 0.6129271181612498 -1.6633506825537896 0 0 0
267 7 5 0 -4.466859341366286 7.21096860469152 -1.8681398575243189 0 0 0
268 7 5 -0.1268 -5.51555546933171 8.033663588150008 -1.4732649610183124 0 0 0
358 9 6 0.1268 -2.1648880825733676 2.616816358010495 -6.820899644391758 0 0 1
57 2 5 -0.1268 -0.44351548277136965 1.2291975169493108 -3.6646820308827466 0 0 0
61 2 5 -0.1268 -0.9745898628005859 3.4696177120604115 -3.0565418443744967 0 0 0
367 9 6 0.053 -2.2254755587497352 0.7739971155098724 -5.854966989590742 0 0 1
264 7 5 0.0265 -6.543768111550238 7.909072762395914 -3.650775594895903 0 0 0
265 7 5 -0.1268 -5.485126043910092 7.091415739493108 -4.065533817904188 0 0 0
353 9 2 -0.106 -1.2123747680802375 0.24580899639270737 -7.728849697882367 0 0 1
266 7 5 -0.1268 -4.470182266711976 6.749940784918588 -3.1824777014381715 0 0 0
296 7 6 0.1268 -5.861013626363723 5.43773512764631 -0.6417388494472192 0 0 0
363 9 6 0.053 -4.574057899872145 3.7751485274658343 -6.6284411724492145 0 0 1
333 8 6 0.1268 8.177362784854814 7.0651815755805405 -0.362311969606116 -1 0 0
204 5 6 0.1268 -7.855525165081282 5.020052909011671 -6.140756192765788 1 -1 1
298 7 6 0.053 -5.06910240903162 1.1015145984441521 -0.4363228368897881 0 0 0
359 9 6 0.053 -2.415327857698794 5.05036592795128 -6.917995831947161 0 0 1
270 7 2 -0.106 -3.420633661357534 6.799451545541381 -0.8592525063580088 0 0 0
288 7 6 0.1268 -3.659041227802648 6.087138368689801 -3.5186797186722965 0 0 0
295 7 6 0.1268 -6.280982262572996 3.2539295208475645 0.3371874603016639 0 0 0
276 7 5 -0.1268 -5.021788493394395 4.915776486806665 -0.15873197985828472 0 0 0
291 7 6 0.053 -2.438676148502658 6.720198531802745 -1.3530029217160917 0 0 0