LAMMPS data file via write_data, version 12 Jun 2025, timestep = 90, units = real

8108 atoms
3 atom types
9408 bonds
2 bond types
26880 angles
3 angle types
16128 dihedrals
1 dihedral types

-17.221909138386085 17.221909138386085 xlo xhi
-17.058328472861344 17.058328472861344 ylo yhi
-10.190206149839753 10.190206149839753 zlo zhi

Atom Type Labels

1 cg1
2 cge
3 li+

Bond Type Labels

1 cg1-cg1
2 cg1-cge

Angle Type Labels

1 cg1-cg1-cg1
2 cge-cg1-cg1
3 cge-cg1-cge

Dihedral Type Labels

1 cg1-cg1-cg1-cg1

Improper Type Labels


Masses

1 10.01115
2 1
3 6.941

Pair Coeffs # lj/class2/coul/long

1 0.062 3.932
2 1e-05 1e-05
3 0.000544331 2.87

Bond Coeffs # class2

1 1.42 480 0 0
2 0.65 250 0 0

Angle Coeffs # class2

1 120 90 0 0
2 90 50 0 0
3 180 50 0 0

BondBond Coeffs

1 0 1.42 1.42
2 0 0.65 1.42
3 0 0.65 0.65

BondAngle Coeffs

1 0 0 1.42 1.42
2 0 0 0.65 1.42
3 0 0 0.65 0.65

Dihedral Coeffs # class2

1 0 0 0 0 0 0

AngleAngleTorsion Coeffs

1 0 120 120

EndBondTorsion Coeffs

1 0 0 0 0 0 0 1.42 1.42

MiddleBondTorsion Coeffs

1 0 0 0 1.42

BondBond13 Coeffs

1 0 1.42 1.42

AngleTorsion Coeffs

1 0 0 0 0 0 0 120 120

Atoms # full

34 1 1 0.25 -17.009934216108245 -14.19669229152773 -8.346186752077758 0 0 0
35 1 1 0.25 -17.02456748227228 -12.783448030049172 -8.387366702670477 0 0 0
38 1 1 0.25 -17.0161509648136 -9.924570147710506 -8.505235622233881 0 0 0
39 1 1 0.25 -17.001159631309967 -8.509766047000905 -8.557315028690127 0 0 0
63 1 1 0.25 -17.016997566953926 -17.048000830373123 -8.386424475321174 0 1 0
65 1 1 0.25 -15.784225793693262 -14.908904659994853 -8.329912066820235 0 0 0
66 1 1 0.25 -14.556360820599842 -14.186582129006942 -8.342263649333248 0 0 0
67 1 1 0.25 -14.548385657579132 -12.77929722418158 -8.401161261733913 0 0 0
68 1 1 0.25 -15.804780349704881 -12.062066034468184 -8.419276136010406 0 0 0
69 1 1 0.25 -15.798301000228207 -10.62478498367085 -8.494420812927816 0 0 0
70 1 1 0.25 -14.55377279716542 -9.945623482988557 -8.562811747268524 0 0 0
71 1 1 0.25 -14.557824973620983 -8.495137424017054 -8.574119142113775 0 0 0
72 1 1 0.25 -15.775753446480875 -7.786374789705484 -8.5922933854682 0 0 0
73 1 1 0.25 -15.793028610500716 -6.382724908041229 -8.61400582729781 0 0 0
95 1 1 0.25 -14.55927420801957 -17.030119268691617 -8.335706646041116 0 1 0
96 1 1 0.25 -15.793459265078369 -16.34713380508375 -8.357284076738475 0 1 0
97 1 1 0.25 -13.324327713252185 -14.914489503737498 -8.318158785951633 0 0 0
98 1 1 0.25 -12.094084943174774 -14.21265639723658 -8.357230908584103 0 0 0
99 1 1 0.25 -12.093650004877269 -12.790245722117985 -8.45342197956754 0 0 0
100 1 1 0.25 -13.339482330160772 -12.07347509032699 -8.485989147443389 0 0 0
101 1 1 0.25 -13.335942756268643 -10.63472933816924 -8.55566696103896 0 0 0
102 1 1 0.25 -12.105417303020822 -9.942031684034795 -8.644431896003175 0 0 0
103 1 1 0.25 -12.085861571754297 -8.527560264976591 -8.611407484682347 0 0 0
104 1 1 0.25 -13.325773874519662 -7.80751874239394 -8.5894069660354 0 0 0
105 1 1 0.25 -13.33421111369736 -6.3707061038104165 -8.621636931403776 0 0 0
127 1 1 0.25 -12.1021818382875 -17.035335839702707 -8.360379206390515 0 1 0
128 1 1 0.25 -13.317155486405467 -16.336499809713594 -8.297806578316928 0 1 0
129 1 1 0.25 -10.861024026849343 -14.907566366386082 -8.414831830433346 0 0 0
130 1 1 0.25 -9.655876841528556 -14.18839242418861 -8.481428328266553 0 0 0
131 1 1 0.25 -9.650343533096734 -12.785179734057387 -8.50275548179166 0 0 0
132 1 1 0.25 -10.871295547665976 -12.08404919413026 -8.539387706842225 0 0 0
133 1 1 0.25 -10.858296830955652 -10.649088143069497 -8.611228646340043 0 0 0
134 1 1 0.25 -9.61331810031147 -9.932597189770124 -8.596654139662526 0 0 0
135 1 1 0.25 -9.627620280040219 -8.51515932124131 -8.551584992306445 0 0 0
136 1 1 0.25 -10.859395641521436 -7.807123521480914 -8.588990565446379 0 0 0
137 1 1 0.25 -10.873001567727076 -6.383962911388052 -8.57197335582251 0 0 0
159 1 1 0.25 -9.625542219096873 -17.043034940303727 -8.456914251889764 0 1 0
160 1 1 0.25 -10.857207185123888 -16.326356337060606 -8.405861326506328 0 1 0
161 1 1 0.25 -8.387234737775978 -14.901845000503348 -8.491059723728242 0 0 0
162 1 1 0.25 -7.169110800331996 -14.178822025393256 -8.500445072163277 0 0 0
163 1 1 0.25 -7.170673422237229 -12.77478035766229 -8.509966957078802 0 0 0
164 1 1 0.25 -8.369925206093662 -12.065098554347777 -8.491597649957336 0 0 0
165 1 1 0.25 -8.398587831099297 -10.64067009782206 -8.521134769474966 0 0 0
166 1 1 0.25 -7.177081135159362 -9.934767335932696 -8.549782956038479 0 0 0
167 1 1 0.25 -7.186549379768895 -8.506806417714657 -8.5436931836002 0 0 0
168 1 1 0.25 -8.41415522910139 -7.809992766377039 -8.543397033400945 0 0 0
169 1 1 0.25 -8.394089914723681 -6.393350269756066 -8.53867841266932 0 0 0
191 1 1 0.25 -7.1611771446807975 -17.03721974631295 -8.49469978931163 0 1 0
192 1 1 0.25 -8.412668580906582 -16.330282242300804 -8.490706593716423 0 1 0
193 1 1 0.25 -5.93830785295545 -14.902915088165383 -8.521595668857845 0 0 0
196 1 1 0.25 -5.948879032170328 -12.05543050795785 -8.523872974346707 0 0 0
197 1 1 0.25 -5.94660107622029 -10.642158955014992 -8.523154974750469 0 0 0
200 1 1 0.25 -5.941709683066536 -7.790881783866954 -8.542454948008231 0 0 0
201 1 1 0.25 -5.941468686771806 -6.367436401977759 -8.517540788282272 0 0 0
224 1 1 0.25 -5.968016986977139 -16.343067888366036 -8.492610234018004 0 1 0
609 2 1 0.25 -16.078373036103287 -11.891490794182243 -4.955102733743234 1 0 0
610 2 1 0.25 -14.851064346947792 -11.177963395228026 -4.984028264586748 1 0 0
611 2 1 0.25 -14.834871471406748 -9.746940392536562 -5.032988492905465 1 0 0
612 2 1 0.25 -16.06603195277234 -9.028007696055164 -5.072762432285691 1 0 0
613 2 1 0.25 -16.08527756193484 -7.6411731802723235 -5.189417503298518 1 0 0
614 2 1 0.25 -14.84533264445094 -6.923138157650964 -5.233668870287112 1 0 0
637 2 1 0.25 -16.09122140379503 -16.1517959825845 -5.01717065592635 1 1 0
638 2 1 0.25 -14.844474028131755 -15.433295742943734 -4.954995218068374 1 1 0
639 2 1 0.25 -14.856904464678339 -14.029036853523776 -4.915427391920776 1 1 0
640 2 1 0.25 -16.082817068597244 -13.296903751177878 -4.916210886014087 1 1 0
641 2 1 0.25 -13.61637664309851 -11.87226238647255 -4.937144808803807 1 0 0
642 2 1 0.25 -12.382221720045056 -11.151857502700729 -4.893430654796487 1 0 0
643 2 1 0.25 -12.385255549894158 -9.74557592448641 -4.930958861355298 1 0 0
644 2 1 0.25 -13.605902586851027 -9.058008147877956 -5.038974789513301 1 0 0
645 2 1 0.25 -13.624365017412032 -7.625241600748781 -5.176452259522377 1 0 0
646 2 1 0.25 -12.404312030909047 -6.907148901950256 -5.20418989184304 1 0 0
669 2 1 0.25 -13.617732751929765 -16.167254365710015 -4.98466561965417 1 1 0
670 2 1 0.25 -12.401817898969156 -15.438343885447296 -4.973077269998217 1 1 0
671 2 1 0.25 -12.391272733851391 -14.002516036173496 -4.947000869655895 1 1 0
672 2 1 0.25 -13.612854114148234 -13.310473218860654 -4.9343502653927525 1 1 0
673 2 1 0.25 -11.145315672421738 -11.851482741332713 -4.928539435490086 1 0 0
674 2 1 0.25 -9.92713344689951 -11.151634422859573 -4.957621300445668 1 0 0
675 2 1 0.25 -9.943541312861578 -9.743085080401801 -4.959836304603344 1 0 0
676 2 1 0.25 -11.145642440735976 -9.025945805541106 -4.956961735346868 1 0 0
677 2 1 0.25 -11.14305553394869 -7.61181882116902 -5.101273899232132 1 0 0
678 2 1 0.25 -9.918374362634054 -6.897171914118989 -5.148335743904408 1 0 0
701 2 1 0.25 -11.178525775113243 -16.129590412622573 -5.018502740265566 1 1 0
702 2 1 0.25 -9.924037712275183 -15.406922575655955 -5.019205520603729 1 1 0
703 2 1 0.25 -9.919838939065698 -14.01559533228894 -5.000939948353594 1 1 0
704 2 1 0.25 -11.160552389892235 -13.304535520192537 -4.954094688053623 1 1 0
705 2 1 0.25 -8.69145494136879 -11.878583067508387 -5.069742044839445 1 0 0
706 2 1 0.25 -7.464342901554247 -11.161467885166578 -5.177634624606945 1 0 0
707 2 1 0.25 -7.479220527052075 -9.738783827794629 -5.171852145889445 1 0 0
708 2 1 0.25 -8.711691977398926 -9.048062688665457 -5.102582654601448 1 0 0
709 2 1 0.25 -8.692509102527657 -7.636140016557835 -5.170130164028708 1 0 0
710 2 1 0.25 -7.471074937961619 -6.921104840603121 -5.216529122879242 1 0 0
733 2 1 0.25 -8.70492753247713 -16.15455524055176 -5.062683750800836 1 1 0
734 2 1 0.25 -7.4741261379963255 -15.447735965742474 -5.133881164442858 1 1 0
735 2 1 0.25 -7.479989056458878 -14.010098792359175 -5.1469938561716 1 1 0
736 2 1 0.25 -8.700266058365557 -13.305407273153905 -5.074866731154739 1 1 0
737 2 1 0.25 -6.248471274778151 -11.875652962613273 -5.260187745187956 1 0 0
740 2 1 0.25 -6.246984572971112 -9.029983921648828 -5.237785975016367 1 0 0
741 2 1 0.25 -6.251270172012456 -7.6362523063841685 -5.234778940761921 1 0 0
765 2 1 0.25 -6.236774365489829 -16.161150976671713 -5.159394955043885 1 1 0
768 2 1 0.25 -6.247235826679544 -13.296385278568696 -5.248774486172975 1 1 0
900 3 1 0.25 -6.952153391174528 -14.210865454057421 -1.7278496017124318 0 0 0
901 3 1 0.25 -6.95184534275031 -12.812715953453793 -1.6996030168043053 0 0 0
904 3 1 0.25 -6.9651316691821865 -9.961751994501677 -1.6879712759484917 0 0 0
905 3 1 0.25 -6.952445563840913 -8.547394164528253 -1.6899060081184079 0 0 0
908 3 1 0.25 -6.954489869262375 -5.703828656247083 -1.674494700668955 0 0 0
1218 3 1 0.25 -15.580990026360293 -16.340366973193106 -1.490070223171422 1 0 0
1219 3 1 0.25 -15.565226977404043 -14.932530869956222 -1.5593603378675631 1 0 0
1220 3 1 0.25 -16.799773709779828 -14.214492481925898 -1.5555824385359465 1 0 0
1221 3 1 0.25 -16.781986914332112 -12.795396455510426 -1.5779774904822421 1 0 0
1222 3 1 0.25 -15.561257974781455 -12.091908273543945 -1.58816455555864 1 0 0
1223 3 1 0.25 -15.570641784385586 -10.669790557932906 -1.6286630665506046 1 0 0
1224 3 1 0.25 -16.800547922404903 -9.974353759357799 -1.6822023326613138 1 0 0
1225 3 1 0.25 -16.7866159430873 -8.542366727012224 -1.7299818010051364 1 0 0
1226 3 1 0.25 -15.556897172999257 -7.829956850584713 -1.7018539509345967 1 0 0
1227 3 1 0.25 -15.571939768706038 -6.412739336560453 -1.6696604874032612 1 0 0
1228 3 1 0.25 -16.793567730815177 -5.692210977242555 -1.7284049238398609 1 0 0
1250 3 1 0.25 -13.114301849099256 -16.365949851592692 -1.6253139616051602 1 0 0
1251 3 1 0.25 -13.105532427847653 -14.950252214409389 -1.641192069366566 1 0 0
1252 3 1 0.25 -14.322265598209674 -14.224281545003002 -1.6008293768905872 1 0 0
1253 3 1 0.25 -14.35768136331253 -12.797374589812474 -1.5942521996537469 1 0 0
1254 3 1 0.25 -13.10323612484494 -12.110703155271533 -1.6065479233001447 1 0 0
1255 3 1 0.25 -13.116334264734334 -10.673487427959135 -1.5973243622990339 1 0 0
1256 3 1 0.25 -14.316526364361737 -9.969866386330338 -1.6222146099288537 1 0 0
1257 3 1 0.25 -14.352684945663675 -8.537383351697514 -1.6350985445721236 1 0 0
1258 3 1 0.25 -13.105499376886984 -7.825965139735921 -1.6471632139301295 1 0 0
1259 3 1 0.25 -13.105653484674349 -6.396579576374515 -1.6592791510629414 1 0 0
1282 3 1 0.25 -10.643381694953288 -16.354328402049866 -1.7286541146072825 1 0 0
1283 3 1 0.25 -10.642980893602306 -14.93388693762086 -1.7111970712933928 1 0 0
1284 3 1 0.25 -11.888182654499314 -14.24238648175131 -1.6726623183200324 1 0 0
1285 3 1 0.25 -11.879701171422784 -12.804859030541603 -1.6524488636286705 1 0 0
1286 3 1 0.25 -10.648953143537561 -12.095703772097302 -1.6680037303743163 1 0 0
1287 3 1 0.25 -10.634744825644287 -10.690322405510464 -1.6663780901981333 1 0 0
1288 3 1 0.25 -11.868485469034283 -9.987481764997177 -1.6402893712421918 1 0 0
1289 3 1 0.25 -11.883917786653864 -8.547617160860275 -1.663282129413119 1 0 0
1290 3 1 0.25 -10.627313805794085 -7.851232075403539 -1.7261851545975482 1 0 0
1291 3 1 0.25 -10.64601685777867 -6.410953029766068 -1.7396703553421116 1 0 0
1314 3 1 0.25 -8.168197285678469 -16.38236828981807 -1.7531292717653955 1 0 0
1315 3 1 0.25 -8.172012851342778 -14.94452577552175 -1.7297057522705224 1 0 0
1316 3 1 0.25 -9.41531749478498 -14.231023632624733 -1.7300164740721868 1 0 0
1317 3 1 0.25 -9.412969071540616 -12.810989047106114 -1.703846104856602 1 0 0
1318 3 1 0.25 -8.18654335448241 -12.096975263234366 -1.6748507275797095 1 0 0
1319 3 1 0.25 -8.188916845128883 -10.688082897834919 -1.6949379474025505 1 0 0
1320 3 1 0.25 -9.410577219983836 -9.977208984105587 -1.7262648052667888 1 0 0
1321 3 1 0.25 -9.407952478695428 -8.527169170756604 -1.7592938748509503 1 0 0
1322 3 1 0.25 -8.182462020803543 -7.841327630620015 -1.7209669266314123 1 0 0
1323 3 1 0.25 -8.164451403750707 -6.42167981980341 -1.7182207218401455 1 0 0
2755 1 2 -0.125 -16.975888370349647 -14.192161730505525 -7.6886465212501225 0 0 0
2756 1 2 -0.125 -17.049626049172964 -14.220594236331245 -9.05451483274048 0 0 0
2757 1 2 -0.125 -17.004540745591623 -12.774866807658404 -7.6934112543371596 0 0 0
2758 1 2 -0.125 -16.962398506375145 -12.804050892787117 -9.03915941733446 0 0 0
2763 1 2 -0.125 -17.021693502332642 -9.922973821028188 -7.842661847510895 0 0 0
2764 1 2 -0.125 -17.06759464329461 -9.96041507838057 -9.168600009053984 0 0 0
2765 1 2 -0.125 -17.05592336205356 -8.47459507013497 -7.940655916834411 0 0 0
2766 1 2 -0.125 -17.002590557308416 -8.545355974393685 -9.232648025377491 0 0 0
2814 1 2 -0.125 -17.037533954335526 -16.97971802538609 -9.014781942226909 0 1 0
2817 1 2 -0.125 -15.785314995807607 -14.888418063350885 -7.656191650897361 0 0 0
2818 1 2 -0.125 -15.770922888330565 -14.904288935628323 -9.04174123209301 0 0 0
2819 1 2 -0.125 -14.532132886437637 -14.137137365178997 -7.667982571050814 0 0 0
2820 1 2 -0.125 -14.580057247960198 -14.236337113072828 -9.054393422219666 0 0 0
2821 1 2 -0.125 -14.535985322416433 -12.702144455227817 -7.770805235390904 0 0 0
2822 1 2 -0.125 -14.615163296525221 -12.826068194162126 -9.098789520770943 0 0 0
2823 1 2 -0.125 -15.729522014839086 -12.04148877865211 -7.729238518103095 0 0 0
2824 1 2 -0.125 -15.782593237295083 -12.118435287928719 -9.091223879322527 0 0 0
2825 1 2 -0.125 -15.788506864772886 -10.576160937368904 -7.8183590709052275 0 0 0
2826 1 2 -0.125 -15.774929187476266 -10.68468474745514 -9.154281728716244 0 0 0
2827 1 2 -0.125 -14.521134598490011 -9.985403022287677 -7.909509488859326 0 0 0
2828 1 2 -0.125 -14.579058516165027 -9.973999982877752 -9.251432906051583 0 0 0
2829 1 2 -0.125 -14.55792142240622 -8.482562261203064 -7.8510921616681735 0 0 0
2830 1 2 -0.125 -14.584044240312164 -8.56106916374117 -9.260575935590559 0 0 0
2831 1 2 -0.125 -15.826748249590388 -7.744178292203481 -7.866158503833603 0 0 0
2832 1 2 -0.125 -15.796239296266577 -7.804495562095328 -9.272789488736016 0 0 0
2833 1 2 -0.125 -15.785832061415649 -6.308742914404917 -7.960823951688724 0 0 0
2834 1 2 -0.125 -15.8042176360752 -6.405505406036955 -9.319961280542133 0 0 0
2878 1 2 -0.125 -14.476232014174661 -16.9727518374889 -9.007481109351078 0 1 0
2879 1 2 -0.125 -15.815699229448636 -16.331135419557754 -7.719381097411038 0 1 0
2880 1 2 -0.125 -15.833654878845469 -16.408804997552636 -9.014642401237706 0 1 0
2881 1 2 -0.125 -13.291409601855248 -14.8890802228315 -7.711856923976519 0 0 0
2882 1 2 -0.125 -13.334792327635656 -14.955614702619847 -9.004095884178186 0 0 0
2883 1 2 -0.125 -12.082923419596689 -14.20409035200214 -7.7288108619895475 0 0 0
2884 1 2 -0.125 -12.10765869773476 -14.175173665901676 -8.996140003749586 0 0 0
2885 1 2 -0.125 -12.056328977540613 -12.718265933977522 -7.777768023643425 0 0 0
2886 1 2 -0.125 -12.144317066646122 -12.835326491664649 -9.113338747820508 0 0 0
2887 1 2 -0.125 -13.293410509641452 -12.067823997509038 -7.836071898965333 0 0 0
2888 1 2 -0.125 -13.32710835421593 -12.1500402134476 -9.153284325220506 0 0 0
2889 1 2 -0.125 -13.264362500797219 -10.609502069353143 -7.903549348037941 0 0 0
2890 1 2 -0.125 -13.366505836443997 -10.698939299564515 -9.213466747721695 0 0 0
2891 1 2 -0.125 -12.081987687730555 -9.924989295679989 -7.899301890560279 0 0 0
2892 1 2 -0.125 -12.124963322591565 -10.00559287546859 -9.252748507739813 0 0 0
2893 1 2 -0.125 -12.108576875740297 -8.582624010619034 -7.962414321908782 0 0 0
2894 1 2 -0.125 -12.06756002233967 -8.475111598147082 -9.246359845896517 0 0 0
2895 1 2 -0.125 -13.304636441437129 -7.819043773399159 -7.971258855435935 0 0 0
2896 1 2 -0.125 -13.310820616478747 -7.860068925737959 -9.275203203921249 0 0 0
2897 1 2 -0.125 -13.312595606927989 -6.359525992078883 -7.963806472686387 0 0 0
2898 1 2 -0.125 -13.307792090726053 -6.429842351312569 -9.263788626877702 0 0 0
2941 1 2 -0.125 -12.015137211846124 -17.051262815117045 -7.722989877725127 0 1 0
2942 1 2 -0.125 -12.160326133419042 -16.99476863414257 -9.063184976478189 0 1 0
2943 1 2 -0.125 -13.339959119880843 -16.333226256162526 -7.640858865177867 0 1 0
2944 1 2 -0.125 -13.350939940598817 -16.323171017005766 -9.01777615440772 0 1 0
2945 1 2 -0.125 -10.863338351757776 -14.885532084625481 -7.745228824896556 0 0 0
2946 1 2 -0.125 -10.913382673830785 -14.877136279941483 -9.082275405260125 0 0 0
2947 1 2 -0.125 -9.605752821790578 -14.1845816855724 -7.801012251199259 0 0 0
2948 1 2 -0.125 -9.64319671011767 -14.232455241759759 -9.132051779132075 0 0 0
2949 1 2 -0.125 -9.608159265308739 -12.763508996940049 -7.839204675029549 0 0 0
2950 1 2 -0.125 -9.65488162451599 -12.789410902475444 -9.17307118866081 0 0 0
2951 1 2 -0.125 -10.869185996721791 -12.026218383934742 -7.897288864643431 0 0 0
2952 1 2 -0.125 -10.875879583003496 -12.090129012120954 -9.16687229209061 0 0 0
2953 1 2 -0.125 -10.894914736107847 -10.591418493162315 -7.961706197082076 0 0 0
2954 1 2 -0.125 -10.81561939444087 -10.662575548635868 -9.251599451287957 0 0 0
2955 1 2 -0.125 -9.6438357418215 -9.972688276240909 -7.8828665018209545 0 0 0
2956 1 2 -0.125 -9.575532143244157 -9.915593145489062 -9.31043493723275 0 0 0
2957 1 2 -0.125 -9.631303842450926 -8.514406993816465 -7.886885476251296 0 0 0
2958 1 2 -0.125 -9.653800976835951 -8.514441947762895 -9.210631974499544 0 0 0
2959 1 2 -0.125 -10.883403653278288 -7.7456250975599215 -7.986423102299991 0 0 0
2960 1 2 -0.125 -10.804195606854897 -7.858650199612155 -9.282402761331078 0 0 0
2961 1 2 -0.125 -10.869507844067966 -6.364965345874351 -7.916827232542756 0 0 0
2962 1 2 -0.125 -10.876315018059664 -6.433891304420632 -9.225833234541344 0 0 0
3005 1 2 -0.125 -9.589634827301971 -17.04166011925815 -7.755915688940049 0 1 0
3006 1 2 -0.125 -9.638486408335826 -17.04932504089657 -9.111644218906335 0 1 0
3007 1 2 -0.125 -10.867212335380417 -16.344443658286995 -7.725598357414854 0 1 0
3008 1 2 -0.125 -10.913099930422351 -16.35435151881808 -9.020708891863691 0 1 0
3009 1 2 -0.125 -8.407214841606834 -14.909594867665731 -7.801289831513217 0 0 0
3010 1 2 -0.125 -8.380334242183302 -14.887371171487821 -9.173833279444708 0 0 0
3011 1 2 -0.125 -7.215705077155075 -14.177092500307081 -7.899011531503058 0 0 0
3012 1 2 -0.125 -7.233891689979391 -14.193896117187453 -9.203918174100394 0 0 0
3013 1 2 -0.125 -7.137472804545579 -12.749422218687638 -7.855329564713395 0 0 0
3014 1 2 -0.125 -7.187401601695399 -12.76076192792301 -9.186910545720929 0 0 0
3015 1 2 -0.125 -8.320398917585006 -12.071411406229263 -7.829795510096433 0 0 0
3016 1 2 -0.125 -8.444282655265404 -12.054627817535746 -9.148158393842117 0 0 0
3017 1 2 -0.125 -8.368152106987361 -10.66783313287509 -7.869328433751693 0 0 0
3018 1 2 -0.125 -8.420361575895353 -10.654384528789482 -9.197844719075917 0 0 0
3019 1 2 -0.125 -7.169151282311018 -10.000833681833608 -7.862331181766142 0 0 0
3020 1 2 -0.125 -7.230381058815906 -9.919563369762145 -9.18987291834299 0 0 0
3021 1 2 -0.125 -7.166002050030084 -8.54325225583762 -7.9008904327748715 0 0 0
3022 1 2 -0.125 -7.2287795815933595 -8.505281334758882 -9.222074237200165 0 0 0
3023 1 2 -0.125 -8.398047878402075 -7.783081006189239 -7.861648977103095 0 0 0
3024 1 2 -0.125 -8.432400215707993 -7.839426994410001 -9.175189710809788 0 0 0
3025 1 2 -0.125 -8.39536616102084 -6.392775089262276 -7.874720510483153 0 0 0
3026 1 2 -0.125 -8.404076615880886 -6.342915186947176 -9.208992346953059 0 0 0
3069 1 2 -0.125 -7.2091284249891405 -17.001114229367015 -7.823612709131455 0 1 0
3071 1 2 -0.125 -8.374768775270628 -16.317679271615063 -7.8503544126107565 0 1 0
3072 1 2 -0.125 -8.423173544974613 -16.33153514509594 -9.121193095943973 0 1 0
3073 1 2 -0.125 -5.925983404161329 -14.931453219746587 -7.902016653855783 0 0 0
3074 1 2 -0.125 -5.960250752745008 -14.95033928088829 -9.18681366506896 0 0 0
3079 1 2 -0.125 -5.92553645503815 -12.089779979948684 -7.885546051114204 0 0 0
3080 1 2 -0.125 -6.039057923675635 -12.084797576671926 -9.189777649694987 0 0 0
3081 1 2 -0.125 -5.893044080350974 -10.665979196166571 -7.913433778073375 0 0 0
3082 1 2 -0.125 -5.991718523128142 -10.664090890495492 -9.155826002009015 0 0 0
3087 1 2 -0.125 -5.897622034539491 -7.798101180917083 -7.898156229801648 0 0 0
3088 1 2 -0.125 -5.985407312752411 -7.748475976494513 -9.204886958855983 0 0 0
3089 1 2 -0.125 -5.948013673281885 -6.424385752762044 -7.890184158678988 0 0 0
3090 1 2 -0.125 -5.962486773916503 -6.294449698446172 -9.139481502600479 0 0 0
3135 1 2 -0.125 -5.969564632442507 -16.32825867747871 -7.829502360806765 0 1 0
3136 1 2 -0.125 -5.957023004892836 -16.32537891081066 -9.114716162976439 0 1 0
3905 2 2 -0.125 -16.026860594251108 -11.834751592667763 -4.330458857896565 1 0 0
3906 2 2 -0.125 -16.116098196886806 -11.926919752390198 -5.638972014152391 1 0 0
3907 2 2 -0.125 -14.859541822387893 -11.161570631829548 -4.321015216847621 1 0 0
3908 2 2 -0.125 -14.83988132285302 -11.189619535968626 -5.680023383289853 1 0 0
3909 2 2 -0.125 -14.852870140767713 -9.740553645369014 -4.394829402136483 1 0 0
3910 2 2 -0.125 -14.865368724138248 -9.788633501767869 -5.684310114350182 1 0 0
3911 2 2 -0.125 -16.089842773889245 -9.029109071363047 -4.433188376690396 1 0 0
3912 2 2 -0.125 -16.0528465030886 -9.098695340566469 -5.7089592288919615 1 0 0
3913 2 2 -0.125 -16.104855775760274 -7.571324510860258 -4.585112984348157 1 0 0
3914 2 2 -0.125 -16.074777160064432 -7.7208263153954775 -5.822500453465794 1 0 0
3915 2 2 -0.125 -14.840450757471483 -6.847092980250208 -4.5780176493768385 1 0 0
3916 2 2 -0.125 -14.854907554621658 -6.966160356671457 -5.92165476309239 1 0 0
3961 2 2 -0.125 -16.089740907205588 -16.21192171812283 -4.366580610981911 1 1 0
3962 2 2 -0.125 -16.10033238475841 -16.03557044955095 -5.687635458281345 1 1 0
3963 2 2 -0.125 -14.860850080573519 -15.462784110656408 -4.315865948829129 1 1 0
3964 2 2 -0.125 -14.870486016429268 -15.400814066240978 -5.604347782299974 1 1 0
3965 2 2 -0.125 -14.81019894755805 -14.031541098159696 -4.299210781847528 1 1 0
3966 2 2 -0.125 -14.85851003318387 -13.957665418489558 -5.601879593126734 1 1 0
3967 2 2 -0.125 -16.041075670175545 -13.25988374510952 -4.261357432801544 1 1 0
3968 2 2 -0.125 -16.126558066158267 -13.322292021977972 -5.548042858731539 1 1 0
3969 2 2 -0.125 -13.625778004269726 -11.862840188484775 -4.2156514579618705 1 0 0
3970 2 2 -0.125 -13.558249695412051 -11.903463120245464 -5.569164341848695 1 0 0
3971 2 2 -0.125 -12.406137543746409 -11.142381650421765 -4.208349443130803 1 0 0
3972 2 2 -0.125 -12.353829060993146 -11.129091390241415 -5.521338523008883 1 0 0
3973 2 2 -0.125 -12.384003080001719 -9.746189760096104 -4.364371564256944 1 0 0
3974 2 2 -0.125 -12.369085153489102 -9.770108253041453 -5.586817573420368 1 0 0
3975 2 2 -0.125 -13.644010966486638 -9.013111516234963 -4.389803764466466 1 0 0
3976 2 2 -0.125 -13.621031922150976 -9.10543610708019 -5.698590912945902 1 0 0
3977 2 2 -0.125 -13.628375263845646 -7.573691192730699 -4.564520172789475 1 0 0
3978 2 2 -0.125 -13.605324900487487 -7.669311728131683 -5.7692211180804245 1 0 0
3979 2 2 -0.125 -12.417283384194334 -6.845415717227253 -4.551719544830963 1 0 0
3980 2 2 -0.125 -12.344618699781336 -6.97031638250882 -5.868233981417386 1 0 0
4025 2 2 -0.125 -13.615153623898912 -16.145096297384 -4.330258473193778 1 1 0
4026 2 2 -0.125 -13.606935409492868 -16.104667722927086 -5.7098929140468835 1 1 0
4027 2 2 -0.125 -12.433990294269535 -15.490861870318648 -4.3187094510901645 1 1 0
4028 2 2 -0.125 -12.381064552967011 -15.423634848762555 -5.629974838388881 1 1 0
4029 2 2 -0.125 -12.357622746923195 -14.009160445427987 -4.3034439825950885 1 1 0
4030 2 2 -0.125 -12.400346083069271 -13.989122053689732 -5.58831568584031 1 1 0
4031 2 2 -0.125 -13.648980749723405 -13.275012925341588 -4.283332804557377 1 1 0
4032 2 2 -0.125 -13.577077483144397 -13.276715472090803 -5.628944519103252 1 1 0
4033 2 2 -0.125 -11.150840640641732 -11.867330880515834 -4.251393726089913 1 0 0
4034 2 2 -0.125 -11.214984273258619 -11.925520214490804 -5.524997238363099 1 0 0
4035 2 2 -0.125 -9.883994880471391 -11.161969714157703 -4.302343607181538 1 0 0
4036 2 2 -0.125 -9.984357646662122 -11.14112446527269 -5.661430167129699 1 0 0
4037 2 2 -0.125 -9.923091298974132 -9.725971213196825 -4.269185415086677 1 0 0
4038 2 2 -0.125 -9.987956536243326 -9.76726730200977 -5.599812229322215 1 0 0
4039 2 2 -0.125 -11.112933186373947 -8.998759204446399 -4.271644197656131 1 0 0
4040 2 2 -0.125 -11.172740393516406 -9.03640293337735 -5.6474682189989025 1 0 0
4041 2 2 -0.125 -11.149579590011127 -7.562699857061142 -4.444418579675336 1 0 0
4042 2 2 -0.125 -11.163859283171245 -7.6617583805959235 -5.7914072535488 1 0 0
4043 2 2 -0.125 -9.870702844805846 -6.868134345359191 -4.5167181016262505 1 0 0
4044 2 2 -0.125 -9.92794837497797 -6.901737941436776 -5.788582780030844 1 0 0
4089 2 2 -0.125 -11.130194423375578 -16.12014208548379 -4.378785059937068 1 1 0
4090 2 2 -0.125 -11.160127729185351 -16.121333912788753 -5.637551120591059 1 1 0
4091 2 2 -0.125 -9.91402280656553 -15.453575317383498 -4.417966771266659 1 1 0
4092 2 2 -0.125 -9.976242048912344 -15.386071039278319 -5.652283889882931 1 1 0
4093 2 2 -0.125 -9.848563400004313 -14.0133528876562 -4.388505026634233 1 1 0
4094 2 2 -0.125 -9.937858063725539 -14.004444831460047 -5.691528251612633 1 1 0
4095 2 2 -0.125 -11.17805784804126 -13.33755923791672 -4.337713599365192 1 1 0
4096 2 2 -0.125 -11.162267634364003 -13.248999727898076 -5.591649405120988 1 1 0
4097 2 2 -0.125 -8.606380128649455 -11.892829958709576 -4.38481519019099 1 0 0
4098 2 2 -0.125 -8.774763287112123 -11.883673287868351 -5.695651508059706 1 0 0
4099 2 2 -0.125 -7.441628939282033 -11.125378361320227 -4.443642034913983 1 0 0
4100 2 2 -0.125 -7.5216530056005055 -11.174133327967844 -5.873695415308251 1 0 0
4101 2 2 -0.125 -7.426911509053294 -9.777287867681416 -4.475393208304795 1 0 0
4102 2 2 -0.125 -7.532490899169851 -9.763331028486418 -5.799078161101254 1 0 0
4103 2 2 -0.125 -8.610083660516441 -9.001028186226524 -4.466932891762914 1 0 0
4104 2 2 -0.125 -8.794725048032687 -9.056938180161724 -5.752783444444053 1 0 0
4105 2 2 -0.125 -8.623431393830447 -7.610516395564142 -4.510701023339238 1 0 0
4106 2 2 -0.125 -8.75087891775962 -7.640793628160489 -5.796442733099977 1 0 0
4107 2 2 -0.125 -7.468980588925902 -6.844977800305072 -4.6102578050560545 1 0 0
4108 2 2 -0.125 -7.486928195758123 -6.976283105892822 -5.8750574166962855 1 0 0
4153 2 2 -0.125 -8.69016525022229 -16.11949525639191 -4.445650644327579 1 1 0
4154 2 2 -0.125 -8.734308085558775 -16.153939246323905 -5.702383530871607 1 1 0
4155 2 2 -0.125 -7.498643684622143 -15.447136628096136 -4.4890955822187735 1 1 0
4156 2 2 -0.125 -7.4707705832452564 -15.488441825164994 -5.840803519307414 1 1 0
4157 2 2 -0.125 -7.44544414394678 -14.035941764564988 -4.5308930995997985 1 1 0
4158 2 2 -0.125 -7.517003803995749 -14.041879119614693 -5.825807206929781 1 1 0
4159 2 2 -0.125 -8.702329233944852 -13.324844573837769 -4.405593445105437 1 1 0
4160 2 2 -0.125 -8.755647571256915 -13.34291825479229 -5.710186190225659 1 1 0
4161 2 2 -0.125 -6.1859698559803995 -11.91994046764612 -4.592435913034121 1 0 0
4162 2 2 -0.125 -6.242723164895434 -11.906352571472624 -5.899819787301318 1 0 0
4167 2 2 -0.125 -6.2447305967648195 -9.022266878136216 -4.603053744612351 1 0 0
4168 2 2 -0.125 -6.269336186856485 -9.054121738006389 -5.877157854961384 1 0 0
4169 2 2 -0.125 -6.2292296260340425 -7.609882591555264 -4.564252771172811 1 0 0
4170 2 2 -0.125 -6.25015496650653 -7.613218649003301 -5.948560649267208 1 0 0
4217 2 2 -0.125 -6.215455321504557 -16.11926936988966 -4.434785184010777 1 1 0
4218 2 2 -0.125 -6.27292199118348 -16.167170914118653 -5.8328758537685585 1 1 0
4223 2 2 -0.125 -6.154856725396014 -13.2680698099031 -4.607671268156492 1 1 0
4224 2 2 -0.125 -6.278913186068655 -13.297444137514095 -5.828581397307156 1 1 0
4487 3 2 -0.125 -6.981173878759964 -14.19197013389423 -1.0261519113003263 0 0 0
4488 3 2 -0.125 -6.917252997771023 -14.238941213662534 -2.390430343000377 0 0 0
4489 3 2 -0.125 -6.944615391933855 -12.834639536141765 -0.9924163253302751 0 0 0
4490 3 2 -0.125 -6.9991782004916345 -12.809665712160506 -2.327156233672964 0 0 0
4495 3 2 -0.125 -6.947441043429912 -9.954736544240092 -1.0458334684435968 0 0 0
4496 3 2 -0.125 -6.926473101788913 -9.986146962809695 -2.32061791461242 0 0 0
4497 3 2 -0.125 -6.930530941298354 -8.58015923751916 -1.0034635344058191 0 0 0
4498 3 2 -0.125 -6.960098480752475 -8.560502465881152 -2.327964819433948 0 0 0
4504 3 2 -0.125 -6.9276035286802955 -5.764676998482701 -2.3238332877389203 0 0 0
5123 3 2 -0.125 -15.580786045912348 -16.32703187641154 -0.8683315721525098 1 0 0
5124 3 2 -0.125 -15.55584253254772 -16.33686676162651 -2.12295856463518 1 0 0
5125 3 2 -0.125 -15.558500784302499 -14.839434241717473 -0.821905994925384 1 0 0
5126 3 2 -0.125 -15.566000610568521 -14.956476090685163 -2.18797271363386 1 0 0
5127 3 2 -0.125 -16.80170354427891 -14.208266450214914 -0.891959680568311 1 0 0
5128 3 2 -0.125 -16.81005741055747 -14.197557307385402 -2.185870566175293 1 0 0
5129 3 2 -0.125 -16.792840844106124 -12.82190523752012 -0.934756398955491 1 0 0
5130 3 2 -0.125 -16.826294466098524 -12.826943743898148 -2.1817128518715965 1 0 0