HEADER,  ortho_catechol_mxene_sheet.mdf ortho_catechol_mxene_sheet.car  read w/ msi2lmp > all2lmp: v1.19 / 5 June 2024  Class: 1

368 atoms
448 bonds
1136 angles
3808 dihedrals
128 impropers

12 atom types
13 bond types
32 angle types
63 dihedral types
6 improper types

-5.131268537 7.070731463 xlo xhi
-0.888949029 9.678292948 ylo yhi
 0.269151098 25.129151098 zlo zhi
-6.101000000 0.000000000 0.000000000 xy xz yz

Atom Type Labels

 1  cp
 2  cx1
 3  cx2
 4  cx3
 5  cx4
 6  h 
 7  ho
 8  hoy
 9  oh
10  omx
11  ti1
12  ti2

Bond Type Labels

 1  cp-cp
 2  cp-h
 3  cp-oh
 4  ti1-cx1
 5  ti2-cx1
 6  ti1-cx2
 7  ti2-cx2
 8  ti1-cx3
 9  ti2-cx3
10  ti1-cx4
11  ti2-cx4
12  oh-ho
13  omx-hoy

Angle Type Labels

 1  cp-cp-cp
 2  cp-cp-h
 3  oh-cp-cp
 4  cp-oh-ho
 5  cx1-ti1-cx1
 6  cx1-ti1-cx2
 7  cx1-ti1-cx3
 8  cx1-ti1-cx4
 9  cx1-ti2-cx2
10  cx1-ti2-cx3
11  cx1-ti2-cx4
12  cx2-ti1-cx2
13  cx2-ti1-cx3
14  cx2-ti1-cx4
15  cx2-ti2-cx3
16  cx2-ti2-cx4
17  cx3-ti1-cx3
18  cx3-ti1-cx4
19  cx3-ti2-cx4
20  cx4-ti1-cx4
21  ti1-cx1-ti1
22  ti1-cx1-ti2
23  ti1-cx2-ti1
24  ti1-cx2-ti2
25  ti1-cx3-ti1
26  ti1-cx3-ti2
27  ti1-cx4-ti1
28  ti1-cx4-ti2
29  ti2-cx1-ti2
30  ti2-cx2-ti2
31  ti2-cx3-ti2
32  ti2-cx4-ti2

Dihedral Type Labels

 1  cp-cp-cp-cp
 2  h-cp-cp-h
 3  cp-cp-cp-h
 4  h-cp-cp-oh
 5  oh-cp-cp-oh
 6  cp-cp-cp-oh
 7  cp-cp-oh-ho
 8  ti1-cx1-ti1-cx2
 9  ti1-cx1-ti1-cx1
10  ti1-cx1-ti1-cx4
11  ti1-cx1-ti1-cx3
12  ti2-cx1-ti1-cx2
13  ti2-cx1-ti1-cx1
14  ti2-cx1-ti1-cx4
15  ti2-cx1-ti1-cx3
16  ti1-cx2-ti1-cx2
17  ti1-cx2-ti1-cx1
18  ti1-cx2-ti1-cx4
19  ti1-cx2-ti1-cx3
20  ti2-cx2-ti1-cx1
21  ti2-cx2-ti1-cx4
22  ti2-cx2-ti1-cx3
23  ti2-cx2-ti1-cx2
24  ti1-cx3-ti1-cx1
25  ti1-cx3-ti1-cx3
26  ti1-cx3-ti1-cx4
27  ti1-cx3-ti1-cx2
28  ti2-cx3-ti1-cx2
29  ti2-cx3-ti1-cx1
30  ti2-cx3-ti1-cx3
31  ti2-cx3-ti1-cx4
32  ti1-cx4-ti1-cx2
33  ti1-cx4-ti1-cx3
34  ti1-cx4-ti1-cx1
35  ti1-cx4-ti1-cx4
36  ti2-cx4-ti1-cx4
37  ti2-cx4-ti1-cx1
38  ti2-cx4-ti1-cx2
39  ti2-cx4-ti1-cx3
40  ti1-cx1-ti2-cx3
41  ti1-cx1-ti2-cx4
42  ti1-cx1-ti2-cx2
43  ti2-cx1-ti2-cx3
44  ti2-cx1-ti2-cx4
45  ti2-cx1-ti2-cx2
46  ti1-cx2-ti2-cx1
47  ti1-cx2-ti2-cx4
48  ti1-cx2-ti2-cx3
49  ti2-cx2-ti2-cx4
50  ti2-cx2-ti2-cx3
51  ti2-cx2-ti2-cx1
52  ti1-cx3-ti2-cx4
53  ti1-cx3-ti2-cx2
54  ti1-cx3-ti2-cx1
55  ti2-cx3-ti2-cx2
56  ti2-cx3-ti2-cx1
57  ti2-cx3-ti2-cx4
58  ti1-cx4-ti2-cx1
59  ti1-cx4-ti2-cx3
60  ti1-cx4-ti2-cx2
61  ti2-cx4-ti2-cx3
62  ti2-cx4-ti2-cx2
63  ti2-cx4-ti2-cx1

Improper Type Labels

 1  cp-cp-cp-h-nb==3
 2  cp-cp-cp-oh-nb==3
 3  cx1-ti2-cx2-cx3-nb==3
 4  cx1-ti2-cx2-cx4-nb==3
 5  cx1-ti2-cx3-cx4-nb==3
 6  cx2-ti2-cx3-cx4-nb==3

Masses

1   12.01115000  #  cp   
2   12.01115000  #  cx1  
3   12.01115000  #  cx2  
4   12.01115000  #  cx3  
5   12.01115000  #  cx4  
6    1.00797000  #  h    
7    1.00797000  #  ho   
8    1.00800000  #  hoy  
9   15.99940000  #  oh   
10  15.99940000  #  omx  
11  47.87600000  #  ti1  
12  47.87600000  #  ti2  

Pair Coeffs  # lj/cut/coul/long

1         0.14800000      3.61704880 #  cp   
2         0.07000000      3.38541513 #  cx1  
3         0.07000000      3.38541513 #  cx2  
4         0.07000000      3.38541513 #  cx3  
5         0.07000000      3.38541513 #  cx4  
6         0.03800000      2.44997145 #  h    
7         0.00000000      0.00000000 #  ho   
8         0.01498252      0.96666799 #  hoy  
9         0.22800001      2.85978487 #  oh   
10        0.14999995      3.11814560 #  omx  
11        0.20000000      2.00452212 #  ti1  
12        0.20000000      2.00452212 #  ti2  

Bond Coeffs  # harmonic

1       480.00000000      1.34000000 #  cp          cp   
2       363.41640000      1.08000000 #  cp           h   
3       384.00000000      1.37000000 #  cp          oh   
4       285.00000000      2.15700000 #  ti1        cx1   
5       285.00000000      2.15700000 #  ti2        cx1   
6       285.00000000      2.15700000 #  ti1        cx2   
7       285.00000000      2.15700000 #  ti2        cx2   
8       285.00000000      2.15700000 #  ti1        cx3   
9       285.00000000      2.15700000 #  ti2        cx3   
10      285.00000000      2.15700000 #  ti1        cx4   
11      285.00000000      2.15700000 #  ti2        cx4   
12      540.63360000      0.96000000 #  oh          ho   
13      495.00000000      0.94000000 #  omx        hoy   

Angle Coeffs  # harmonic

1        90.00000000    120.00000000 #  cp         cp         cp   
2        37.00000000    120.00000000 #  cp         cp          h   
3        60.00000000    120.00000000 #  oh         cp         cp   
4        50.00000000    109.00000000 #  cp         oh         ho   
5        67.00000000    180.00000000 #  cx1       ti1        cx1   
6        40.00000000     90.00000000 #  cx1       ti1        cx2   
7        40.00000000     90.00000000 #  cx1       ti1        cx3   
8        40.00000000     90.00000000 #  cx1       ti1        cx4   
9        40.00000000     90.00000000 #  cx1       ti2        cx2   
10       40.00000000     90.00000000 #  cx1       ti2        cx3   
11       40.00000000     90.00000000 #  cx1       ti2        cx4   
12       67.00000000    180.00000000 #  cx2       ti1        cx2   
13       40.00000000     90.00000000 #  cx2       ti1        cx3   
14       40.00000000     90.00000000 #  cx2       ti1        cx4   
15       40.00000000     90.00000000 #  cx2       ti2        cx3   
16       40.00000000     90.00000000 #  cx2       ti2        cx4   
17       67.00000000    180.00000000 #  cx3       ti1        cx3   
18       40.00000000     90.00000000 #  cx3       ti1        cx4   
19       40.00000000     90.00000000 #  cx3       ti2        cx4   
20       67.00000000    180.00000000 #  cx4       ti1        cx4   
21       67.00000000     91.60000000 #  ti1       cx1        ti1   
22        0.00000000     90.00000000 #  ti1       cx1        ti2   
23       67.00000000     91.60000000 #  ti1       cx2        ti1   
24        0.00000000     90.00000000 #  ti1       cx2        ti2   
25       67.00000000     91.60000000 #  ti1       cx3        ti1   
26        0.00000000     90.00000000 #  ti1       cx3        ti2   
27       67.00000000     91.60000000 #  ti1       cx4        ti1   
28        0.00000000     90.00000000 #  ti1       cx4        ti2   
29       67.00000000     93.50000000 #  ti2       cx1        ti2   
30       67.00000000     93.50000000 #  ti2       cx2        ti2   
31       67.00000000     93.50000000 #  ti2       cx3        ti2   
32       67.00000000     93.50000000 #  ti2       cx4        ti2   

Dihedral Coeffs  # harmonic

1        12.00000000              -1               2 #  cp         cp        cp         cp   
2        12.00000000              -1               2 #  h          cp        cp          h   
3        12.00000000              -1               2 #  cp         cp        cp          h   
4        12.00000000              -1               2 #  h          cp        cp         oh   
5        12.00000000              -1               2 #  oh         cp        cp         oh   
6        12.00000000              -1               2 #  cp         cp        cp         oh   
7         1.50000000              -1               2 #  cp         cp        oh         ho   
8         0.00000000               1               0 #  ti1       cx1       ti1        cx2   
9         0.00000000               1               0 #  ti1       cx1       ti1        cx1   
10        0.00000000               1               0 #  ti1       cx1       ti1        cx4   
11        0.00000000               1               0 #  ti1       cx1       ti1        cx3   
12        0.00000000               1               0 #  ti2       cx1       ti1        cx2   
13        0.00000000               1               0 #  ti2       cx1       ti1        cx1   
14        0.00000000               1               0 #  ti2       cx1       ti1        cx4   
15        0.00000000               1               0 #  ti2       cx1       ti1        cx3   
16        0.00000000               1               0 #  ti1       cx2       ti1        cx2   
17        0.00000000               1               0 #  ti1       cx2       ti1        cx1   
18        0.00000000               1               0 #  ti1       cx2       ti1        cx4   
19        0.00000000               1               0 #  ti1       cx2       ti1        cx3   
20        0.00000000               1               0 #  ti2       cx2       ti1        cx1   
21        0.00000000               1               0 #  ti2       cx2       ti1        cx4   
22        0.00000000               1               0 #  ti2       cx2       ti1        cx3   
23        0.00000000               1               0 #  ti2       cx2       ti1        cx2   
24        0.00000000               1               0 #  ti1       cx3       ti1        cx1   
25        0.00000000               1               0 #  ti1       cx3       ti1        cx3   
26        0.00000000               1               0 #  ti1       cx3       ti1        cx4   
27        0.00000000               1               0 #  ti1       cx3       ti1        cx2   
28        0.00000000               1               0 #  ti2       cx3       ti1        cx2   
29        0.00000000               1               0 #  ti2       cx3       ti1        cx1   
30        0.00000000               1               0 #  ti2       cx3       ti1        cx3   
31        0.00000000               1               0 #  ti2       cx3       ti1        cx4   
32        0.00000000               1               0 #  ti1       cx4       ti1        cx2   
33        0.00000000               1               0 #  ti1       cx4       ti1        cx3   
34        0.00000000               1               0 #  ti1       cx4       ti1        cx1   
35        0.00000000               1               0 #  ti1       cx4       ti1        cx4   
36        0.00000000               1               0 #  ti2       cx4       ti1        cx4   
37        0.00000000               1               0 #  ti2       cx4       ti1        cx1   
38        0.00000000               1               0 #  ti2       cx4       ti1        cx2   
39        0.00000000               1               0 #  ti2       cx4       ti1        cx3   
40        0.00000000               1               0 #  ti1       cx1       ti2        cx3   
41        0.00000000               1               0 #  ti1       cx1       ti2        cx4   
42        0.00000000               1               0 #  ti1       cx1       ti2        cx2   
43        0.00000000               1               0 #  ti2       cx1       ti2        cx3   
44        0.00000000               1               0 #  ti2       cx1       ti2        cx4   
45        0.00000000               1               0 #  ti2       cx1       ti2        cx2   
46        0.00000000               1               0 #  ti1       cx2       ti2        cx1   
47        0.00000000               1               0 #  ti1       cx2       ti2        cx4   
48        0.00000000               1               0 #  ti1       cx2       ti2        cx3   
49        0.00000000               1               0 #  ti2       cx2       ti2        cx4   
50        0.00000000               1               0 #  ti2       cx2       ti2        cx3   
51        0.00000000               1               0 #  ti2       cx2       ti2        cx1   
52        0.00000000               1               0 #  ti1       cx3       ti2        cx4   
53        0.00000000               1               0 #  ti1       cx3       ti2        cx2   
54        0.00000000               1               0 #  ti1       cx3       ti2        cx1   
55        0.00000000               1               0 #  ti2       cx3       ti2        cx2   
56        0.00000000               1               0 #  ti2       cx3       ti2        cx1   
57        0.00000000               1               0 #  ti2       cx3       ti2        cx4   
58        0.00000000               1               0 #  ti1       cx4       ti2        cx1   
59        0.00000000               1               0 #  ti1       cx4       ti2        cx3   
60        0.00000000               1               0 #  ti1       cx4       ti2        cx2   
61        0.00000000               1               0 #  ti2       cx4       ti2        cx3   
62        0.00000000               1               0 #  ti2       cx4       ti2        cx2   
63        0.00000000               1               0 #  ti2       cx4       ti2        cx1   

Improper Coeffs  # cvff

1         0.37000000              -1               2 #  cp         cp        cp        h       nb==3   
2         0.00000000              -1               2 #  cp         cp        cp        oh      nb==3   
3         0.00000000              -1               2 #  cx1       ti2       cx2       cx3      nb==3   
4         0.00000000              -1               2 #  cx1       ti2       cx2       cx4      nb==3   
5         0.00000000              -1               2 #  cx1       ti2       cx3       cx4      nb==3   
6         0.00000000              -1               2 #  cx2       ti2       cx3       cx4      nb==3   

Atoms # full

  1     1   12   0.000000    1.746414640     1.252919841    15.384244747      0    0    0 #  ti2/Ti
  2     1   12   0.000000   -4.354585360     1.252919841    15.384244747      1    0    0 #  ti2/Ti
  3     1   12   0.000000   -1.304085360     6.536540830    15.384244747      0    0    0 #  ti2/Ti
  4     1   12   0.000000   -7.405085360     6.536540830    15.384244747      1    0    0 #  ti2/Ti
  5     1   12   0.000000    4.796914640     1.252919841    15.384244747      0    0    0 #  ti2/Ti
  6     1   12   0.000000   -1.304085360     1.252919841    15.384244747      1    0    0 #  ti2/Ti
  7     1   12   0.000000    1.746414640     6.536540830    15.384244747      0    0    0 #  ti2/Ti
  8     1   12   0.000000   -4.354585360     6.536540830    15.384244747      1    0    0 #  ti2/Ti
  9     1   12   0.000000    0.221164640     3.894730335    15.384244747      0    0    0 #  ti2/Ti
  10    1   12   0.000000   -5.879835360     3.894730335    15.384244747      1    0    0 #  ti2/Ti
  11    1   12   0.000000   -2.829335360     9.178351324    15.384244747      0    0    0 #  ti2/Ti
  12    1   12   0.000000   -8.930335360     9.178351324    15.384244747      1    0    0 #  ti2/Ti
  13    1   12   0.000000    3.271664640     3.894730335    15.384244747      0    0    0 #  ti2/Ti
  14    1   12   0.000000   -2.829335360     3.894730335    15.384244747      1    0    0 #  ti2/Ti
  15    1   12   0.000000    0.221164640     9.178351324    15.384244747      0    0    0 #  ti2/Ti
  16    1   12   0.000000   -5.879835360     9.178351324    15.384244747      1    0    0 #  ti2/Ti
  17    1   12   0.000000    0.221164640     2.133523339    10.570180747      0    0    0 #  ti2/Ti
  18    1   12   0.000000   -5.879835360     2.133523339    10.570180747      1    0    0 #  ti2/Ti
  19    1   12   0.000000   -2.829335360     7.417144328    10.570180747      0    0    0 #  ti2/Ti
  20    1   12   0.000000   -8.930335360     7.417144328    10.570180747      1    0    0 #  ti2/Ti
  21    1   12   0.000000    3.271664640     2.133523339    10.570180747      0    0    0 #  ti2/Ti
  22    1   12   0.000000   -2.829335360     2.133523339    10.570180747      1    0    0 #  ti2/Ti
  23    1   12   0.000000    0.221164640     7.417144328    10.570180747      0    0    0 #  ti2/Ti
  24    1   12   0.000000   -5.879835360     7.417144328    10.570180747      1    0    0 #  ti2/Ti
  25    1   12   0.000000   -1.304085360     4.775333833    10.570180747      0    0    0 #  ti2/Ti
  26    1   12   0.000000   -7.405085360     4.775333833    10.570180747      1    0    0 #  ti2/Ti
  27    1   12   0.000000    1.746414640    -0.508287155    10.570180747      0    1    0 #  ti2/Ti
  28    1   12   0.000000   -4.354585360    -0.508287155    10.570180747      1    1    0 #  ti2/Ti
  29    1   12   0.000000    1.746414640     4.775333833    10.570180747      0    0    0 #  ti2/Ti
  30    1   12   0.000000   -4.354585360     4.775333833    10.570180747      1    0    0 #  ti2/Ti
  31    1   12   0.000000    4.796914640    -0.508287155    10.570180747      0    1    0 #  ti2/Ti
  32    1   12   0.000000   -1.304085360    -0.508287155    10.570180747      1    1    0 #  ti2/Ti
  33    1   4    0.000000    0.221164640     2.133523339    14.162854747      0    0    0 #  cx3/C
  34    1   4    0.000000   -5.879835360     2.133523339    14.162854747      1    0    0 #  cx3/C
  35    1   4    0.000000   -2.829335360     7.417144328    14.162854747      0    0    0 #  cx3/C
  36    1   4    0.000000   -8.930335360     7.417144328    14.162854747      1    0    0 #  cx3/C
  37    1   2    0.000000    3.271664640     2.133523339    14.162854747      0    0    0 #  cx1/C
  38    1   2    0.000000   -2.829335360     2.133523339    14.162854747      1    0    0 #  cx1/C
  39    1   2    0.000000    0.221164640     7.417144328    14.162854747      0    0    0 #  cx1/C
  40    1   2    0.000000   -5.879835360     7.417144328    14.162854747      1    0    0 #  cx1/C
  41    1   5    0.000000   -1.304085360     4.775333833    14.162854747      0    0    0 #  cx4/C
  42    1   5    0.000000   -7.405085360     4.775333833    14.162854747      1    0    0 #  cx4/C
  43    1   5    0.000000    1.746414640    -0.508287155    14.162854747      0    1    0 #  cx4/C
  44    1   5    0.000000   -4.354585360    -0.508287155    14.162854747      1    1    0 #  cx4/C
  45    1   3    0.000000    1.746414640     4.775333833    14.162854747      0    0    0 #  cx2/C
  46    1   3    0.000000   -4.354585360     4.775333833    14.162854747      1    0    0 #  cx2/C
  47    1   3    0.000000    4.796914640    -0.508287155    14.162854747      0    1    0 #  cx2/C
  48    1   3    0.000000   -1.304085360    -0.508287155    14.162854747      1    1    0 #  cx2/C
  49    1   3    0.000000    1.746414640     1.252919841    11.791570747      0    0    0 #  cx2/C
  50    1   3    0.000000   -4.354585360     1.252919841    11.791570747      1    0    0 #  cx2/C
  51    1   3    0.000000   -1.304085360     6.536540830    11.791570747      0    0    0 #  cx2/C
  52    1   3    0.000000   -7.405085360     6.536540830    11.791570747      1    0    0 #  cx2/C
  53    1   5    0.000000    4.796914640     1.252919841    11.791570747      0    0    0 #  cx4/C
  54    1   5    0.000000   -1.304085360     1.252919841    11.791570747      1    0    0 #  cx4/C
  55    1   5    0.000000    1.746414640     6.536540830    11.791570747      0    0    0 #  cx4/C
  56    1   5    0.000000   -4.354585360     6.536540830    11.791570747      1    0    0 #  cx4/C
  57    1   2    0.000000    0.221164640     3.894730335    11.791570747      0    0    0 #  cx1/C
  58    1   2    0.000000   -5.879835360     3.894730335    11.791570747      1    0    0 #  cx1/C
  59    1   2    0.000000   -2.829335360     9.178351324    11.791570747      0    0    0 #  cx1/C
  60    1   2    0.000000   -8.930335360     9.178351324    11.791570747      1    0    0 #  cx1/C
  61    1   4    0.000000    3.271664640     3.894730335    11.791570747      0    0    0 #  cx3/C
  62    1   4    0.000000   -2.829335360     3.894730335    11.791570747      1    0    0 #  cx3/C
  63    1   4    0.000000    0.221164640     9.178351324    11.791570747      0    0    0 #  cx3/C
  64    1   4    0.000000   -5.879835360     9.178351324    11.791570747      1    0    0 #  cx3/C
  65    1   11   0.000000    0.221164640     0.372316343    12.977212747      0    0    0 #  ti1/Ti
  66    1   11   0.000000    6.322164640     0.372316343    12.977212747      0    0    0 #  ti1/Ti
  67    1   11   0.000000   -2.829335360     5.655937332    12.977212747      0    0    0 #  ti1/Ti
  68    1   11   0.000000    3.271664640     5.655937332    12.977212747      0    0    0 #  ti1/Ti
  69    1   11   0.000000    3.271664640     0.372316343    12.977212747      0    0    0 #  ti1/Ti
  70    1   11   0.000000   -2.829335360     0.372316343    12.977212747      1    0    0 #  ti1/Ti
  71    1   11   0.000000    0.221164640     5.655937332    12.977212747      0    0    0 #  ti1/Ti
  72    1   11   0.000000   -5.879835360     5.655937332    12.977212747      1    0    0 #  ti1/Ti
  73    1   11   0.000000   -1.304085360     3.014126837    12.977212747      0    0    0 #  ti1/Ti
  74    1   11   0.000000    4.796914640     3.014126837    12.977212747      0    0    0 #  ti1/Ti
  75    1   11   0.000000   -4.354585360     8.297747826    12.977212747      0    0    0 #  ti1/Ti
  76    1   11   0.000000    1.746414640     8.297747826    12.977212747      0    0    0 #  ti1/Ti
  77    1   11   0.000000    1.746414640     3.014126837    12.977212747      0    0    0 #  ti1/Ti
  78    1   11   0.000000   -4.354585360     3.014126837    12.977212747      1    0    0 #  ti1/Ti
  79    1   11   0.000000   -1.304085360     8.297747826    12.977212747      0    0    0 #  ti1/Ti
  80    1   11   0.000000   -7.405085360     8.297747826    12.977212747      1    0    0 #  ti1/Ti
  81    18  10   0.000000    0.221164640     0.372316343    16.540455547      0    0    0 #  omx/O
  82    19  10   0.000000    6.322164640     0.372316343    16.540455547      0    0    0 #  omx/O
  83    20  10   0.000000   -2.829335360     5.655937332    16.540455547      0    0    0 #  omx/O
  84    21  10   0.000000    3.271664640     5.655937332    16.540455547      0    0    0 #  omx/O
  85    22  10   0.000000    3.271664640     0.372316343    16.540455547      0    0    0 #  omx/O
  86    23  10   0.000000   -2.829335360     0.372316343    16.540455547      1    0    0 #  omx/O
  87    24  10   0.000000    0.221164640     5.655937332    16.540455547      0    0    0 #  omx/O
  88    25  10   0.000000   -5.879835360     5.655937332    16.540455547      1    0    0 #  omx/O
  89    26  10   0.000000   -1.304085360     3.014126837    16.540455547      0    0    0 #  omx/O
  90    27  10   0.000000    4.796914640     3.014126837    16.540455547      0    0    0 #  omx/O
  91    28  10   0.000000   -4.354585360     8.297747826    16.540455547      0    0    0 #  omx/O
  92    29  10   0.000000    1.746414640     8.297747826    16.540455547      0    0    0 #  omx/O
  93    30  10   0.000000    1.746414640     3.014126837    16.540455547      0    0    0 #  omx/O
  94    31  10   0.000000   -4.354585360     3.014126837    16.540455547      1    0    0 #  omx/O
  95    32  10   0.000000   -1.304085360     8.297747826    16.540455547      0    0    0 #  omx/O
  96    33  10   0.000000   -7.405085360     8.297747826    16.540455547      1    0    0 #  omx/O
  97    18  8    0.000000    0.221164640     0.372316343    17.505486747      0    0    0 #  hoy/H
  98    19  8    0.000000    6.322164640     0.372316343    17.505486747      0    0    0 #  hoy/H
  99    20  8    0.000000   -2.829335360     5.655937332    17.505486747      0    0    0 #  hoy/H
 100    21  8    0.000000    3.271664640     5.655937332    17.505486747      0    0    0 #  hoy/H
 101    22  8    0.000000    3.271664640     0.372316343    17.505486747      0    0    0 #  hoy/H
 102    23  8    0.000000   -2.829335360     0.372316343    17.505486747      1    0    0 #  hoy/H
 103    24  8    0.000000    0.221164640     5.655937332    17.505486747      0    0    0 #  hoy/H
 104    25  8    0.000000   -5.879835360     5.655937332    17.505486747      1    0    0 #  hoy/H
 105    26  8    0.000000   -1.304085360     3.014126837    17.505486747      0    0    0 #  hoy/H
 106    27  8    0.000000    4.796914640     3.014126837    17.505486747      0    0    0 #  hoy/H
 107    28  8    0.000000   -4.354585360     8.297747826    17.505486747      0    0    0 #  hoy/H
 108    29  8    0.000000    1.746414640     8.297747826    17.505486747      0    0    0 #  hoy/H
 109    30  8    0.000000    1.746414640     3.014126837    17.505486747      0    0    0 #  hoy/H
 110    31  8    0.000000   -4.354585360     3.014126837    17.505486747      1    0    0 #  hoy/H
 111    32  8    0.000000   -1.304085360     8.297747826    17.505486747      0    0    0 #  hoy/H
 112    33  8    0.000000   -7.405085360     8.297747826    17.505486747      1    0    0 #  hoy/H
 113    34  10   0.000000    0.221164640     0.372316343     9.413969947      0    0    0 #  omx/O
 114    35  10   0.000000    6.322164640     0.372316343     9.413969947      0    0    0 #  omx/O
 115    36  10   0.000000   -2.829335360     5.655937332     9.413969947      0    0    0 #  omx/O
 116    37  10   0.000000    3.271664640     5.655937332     9.413969947      0    0    0 #  omx/O
 117    38  10   0.000000    3.271664640     0.372316343     9.413969947      0    0    0 #  omx/O
 118    39  10   0.000000   -2.829335360     0.372316343     9.413969947      1    0    0 #  omx/O
 119    40  10   0.000000    0.221164640     5.655937332     9.413969947      0    0    0 #  omx/O
 120    41  10   0.000000   -5.879835360     5.655937332     9.413969947      1    0    0 #  omx/O
 121    42  10   0.000000   -1.304085360     3.014126837     9.413969947      0    0    0 #  omx/O
 122    43  10   0.000000    4.796914640     3.014126837     9.413969947      0    0    0 #  omx/O
 123    44  10   0.000000   -4.354585360     8.297747826     9.413969947      0    0    0 #  omx/O
 124    45  10   0.000000    1.746414640     8.297747826     9.413969947      0    0    0 #  omx/O
 125    46  10   0.000000    1.746414640     3.014126837     9.413969947      0    0    0 #  omx/O
 126    47  10   0.000000   -4.354585360     3.014126837     9.413969947      1    0    0 #  omx/O
 127    48  10   0.000000   -1.304085360     8.297747826     9.413969947      0    0    0 #  omx/O
 128    49  10   0.000000   -7.405085360     8.297747826     9.413969947      1    0    0 #  omx/O
 129    34  8    0.000000    0.221164640     0.372316343     8.448938747      0    0    0 #  hoy/H
 130    35  8    0.000000    6.322164640     0.372316343     8.448938747      0    0    0 #  hoy/H
 131    36  8    0.000000   -2.829335360     5.655937332     8.448938747      0    0    0 #  hoy/H
 132    37  8    0.000000    3.271664640     5.655937332     8.448938747      0    0    0 #  hoy/H
 133    38  8    0.000000    3.271664640     0.372316343     8.448938747      0    0    0 #  hoy/H
 134    39  8    0.000000   -2.829335360     0.372316343     8.448938747      1    0    0 #  hoy/H
 135    40  8    0.000000    0.221164640     5.655937332     8.448938747      0    0    0 #  hoy/H
 136    41  8    0.000000   -5.879835360     5.655937332     8.448938747      1    0    0 #  hoy/H
 137    42  8    0.000000   -1.304085360     3.014126837     8.448938747      0    0    0 #  hoy/H
 138    43  8    0.000000    4.796914640     3.014126837     8.448938747      0    0    0 #  hoy/H
 139    44  8    0.000000   -4.354585360     8.297747826     8.448938747      0    0    0 #  hoy/H
 140    45  8    0.000000    1.746414640     8.297747826     8.448938747      0    0    0 #  hoy/H
 141    46  8    0.000000    1.746414640     3.014126837     8.448938747      0    0    0 #  hoy/H
 142    47  8    0.000000   -4.354585360     3.014126837     8.448938747      1    0    0 #  hoy/H
 143    48  8    0.000000   -1.304085360     8.297747826     8.448938747      0    0    0 #  hoy/H
 144    49  8    0.000000   -7.405085360     8.297747826     8.448938747      1    0    0 #  hoy/H
 145    2   1   -0.100000   -7.299165360     8.574030135    21.440932514      1    0    0 #  cp/C
 146    2   1    0.030000   -6.837666103     7.908145412    20.306343136      1    0    0 #  cp/C
 147    2   1    0.030000   -6.169241119     6.684680774    20.439974586      1    0    0 #  cp/C
 148    2   1   -0.100000   -5.968592686     6.138589323    21.706940144      1    0    0 #  cp/C
 149    2   1   -0.100000   -6.431610022     6.807676532    22.838265547      1    0    0 #  cp/C
 150    2   1   -0.100000   -7.096375723     8.024443956    22.705365997      1    0    0 #  cp/C
 151    2   9   -0.380000   -7.055260341     8.479387236    19.076523571      1    0    0 #  oh/O
 152    2   9   -0.380000   -5.699378617     5.997622182    19.347590900      1    0    0 #  oh/O
 153    2   7    0.350000   -5.277347662     5.192783214    19.657423750      1    0    0 #  ho/H
 154    2   6    0.100000   -7.815704785     9.517970496    21.348052859      1    0    0 #  h/H
 155    2   6    0.100000   -7.454868382     8.542100047    23.583948912      1    0    0 #  h/H
 156    2   6    0.100000   -5.454265257     5.195660411    21.820149668      1    0    0 #  h/H
 157    2   7    0.350000   -7.524801255     9.306482857    19.208114153      1    0    0 #  ho/H
 158    2   6    0.100000   -6.275166002     6.382803229    23.819793632      1    0    0 #  h/H
 159    3   1   -0.100000   -10.439051190    8.802547950    22.280157355      1    0    0 #  cp/C
 160    3   1    0.030000   -9.977551933     8.136663227    21.145567978      1    0    0 #  cp/C
 161    3   1    0.030000   -9.309126949     6.913198589    21.279199428      1    0    0 #  cp/C
 162    3   1   -0.100000   -9.108478516     6.367107138    22.546164985      1    0    0 #  cp/C
 163    3   1   -0.100000   -9.571495852     7.036194348    23.677490388      1    0    0 #  cp/C
 164    3   1   -0.100000   -10.236261553    8.252961772    23.544590838      1    0    0 #  cp/C
 165    3   9   -0.380000   -10.195146170    8.707905051    19.915748412      1    0    0 #  oh/O