HEADER,  monomer.mol2  read w/ mol2SYBYL2lmp > atom_typing v1.9 / 5 January 2024 w/PCFF-IFF atom-types > all2lmp: v1.14 / 18 December 2023  Class: 2

26 atoms
29 bonds
48 angles
76 dihedrals
16 impropers

2 atom types
2 bond types
2 angle types
3 dihedral types
2 improper types

-4.500603846 4.500596154 xlo xhi
-4.054900000 4.054900000 ylo yhi
-0.500296154 0.500303846 zlo zhi

Masses

1   12.01115000  #  cp   
2    1.00797000  #  hc   

Pair Coeffs  # lj/class2/coul/long

1         0.06400000      4.01000000 #  cp   
2         0.02000000      2.30000000 #  hc   

Bond Coeffs  # class2

1         1.41700000    470.83610000   -627.61790000   1327.63450000 #  cp          cp   
2         1.09820000    372.82510000   -803.45260000    894.31730000 #  cp          hc   

Angle Coeffs  # class2

1       118.90000000     61.02260000    -34.99310000      0.00000000 #  cp         cp         cp   
2       117.94000000     35.15580000    -12.46820000      0.00000000 #  cp         cp         hc   

Dihedral Coeffs  # class2

1         8.36670000      0.00000000      1.19320000      0.00000000      0.00000000      0.00000000 #  cp         cp        cp         cp   
2         0.00000000      0.00000000      1.87690000      0.00000000      0.00000000      0.00000000 #  hc         cp        cp         hc   
3         0.00000000      0.00000000      3.96610000      0.00000000      0.00000000      0.00000000 #  cp         cp        cp         hc   

Improper Coeffs  # class2

1         7.17940000      0.00000000 #  cp         cp        cp        cp      nb==3   
2         4.89120000      0.00000000 #  cp         cp        cp        hc      nb==3   

BondBond Coeffs  # class2

1        68.28560000      1.41700000      1.41700000 #  cp         cp         cp   
2         1.07950000      1.41700000      1.09820000 #  cp         cp         hc   

BondAngle Coeffs  # class2

1        28.87080000     28.87080000      1.41700000      1.41700000 #  cp         cp         cp   
2        20.00330000     24.21830000      1.41700000      1.09820000 #  cp         cp         hc   

AngleAngleTorsion Coeffs  # class2

1         0.00000000    118.90000000    118.90000000 #  cp         cp        cp         cp   
2         0.35980000    117.94000000    117.94000000 #  hc         cp        cp         hc   
3        -4.81410000    118.90000000    117.94000000 #  cp         cp        cp         hc   

EndBondTorsion Coeffs  # class2

1        -0.11850000      6.32040000      0.00000000     -0.11850000      6.32040000      0.00000000      1.41700000      1.41700000 #  cp         cp        cp         cp   
2         0.00000000     -0.68900000      0.00000000      0.00000000     -0.68900000      0.00000000      1.09820000      1.09820000 #  hc         cp        cp         hc   
3         0.00000000     -6.89580000      0.00000000      0.00000000     -0.46690000      0.00000000      1.41700000      1.09820000 #  cp         cp        cp         hc   

MiddleBondTorsion Coeffs  # class2

1        27.59890000     -2.31200000      0.00000000      1.41700000 #  cp         cp        cp         cp   
2         0.00000000      4.82280000      0.00000000      1.41700000 #  hc         cp        cp         hc   
3         0.00000000     -1.15210000      0.00000000      1.41700000 #  cp         cp        cp         hc   

BondBond13 Coeffs  # class2

1        53.00000000      1.41700000      1.41700000 #  cp         cp        cp         cp   
2        -1.70770000      1.09820000      1.09820000 #  hc         cp        cp         hc   
3        -6.27410000      1.41700000      1.09820000 #  cp         cp        cp         hc   

AngleTorsion Coeffs  # class2

1         1.97670000      1.02390000      0.00000000      1.97670000      1.02390000      0.00000000    118.90000000    118.90000000 #  cp         cp        cp         cp   
2         0.00000000      2.45010000      0.00000000      0.00000000      2.45010000      0.00000000    117.94000000    117.94000000 #  hc         cp        cp         hc   
3         0.00000000      2.50140000      0.00000000      0.00000000      2.71470000      0.00000000    118.90000000    117.94000000 #  cp         cp        cp         hc   

AngleAngle Coeffs  # class2

1         0.00000000      0.00000000      0.00000000    118.90000000    118.90000000    118.90000000 #  cp         cp        cp        cp      nb==3   
2         0.00000000      0.00000000      0.00000000    118.90000000    117.94000000    117.94000000 #  cp         cp        cp        hc      nb==3   

Atoms # full

  1     1   1   -0.126800    3.043896154     1.756300000     0.000103846      0    0    0 #  cp/C
  2     1   1   -0.126800    1.837096154     2.454900000     0.000203846      0    0    0 #  cp/C
  3     1   1    0.000000    0.613896154     1.768300000     0.000103846      0    0    0 #  cp/C
  4     1   1    0.000000    0.613596154     0.354100000     0.000003846      0    0    0 #  cp/C
  5     1   1    0.000000    1.838096154    -0.353500000     0.000003846      0    0    0 #  cp/C
  6     1   1   -0.126800    3.044696154     0.361800000     0.000003846      0    0    0 #  cp/C
  7     1   1   -0.126800    1.819196154    -1.754900000     0.000003846      0    0    0 #  cp/C
  8     1   1   -0.126800    0.608796154    -2.453200000    -0.000096154      0    0    0 #  cp/C
  9     1   1    0.000000   -0.613903846    -1.768300000    -0.000196154      0    0    0 #  cp/C
  10    1   1   -0.126800   -1.837103846    -2.454900000    -0.000196154      0    0    0 #  cp/C
  11    1   1   -0.126800   -3.043903846    -1.756300000    -0.000196154      0    0    0 #  cp/C
  12    1   1   -0.126800   -3.044703846    -0.361800000    -0.000096154      0    0    0 #  cp/C
  13    1   1    0.000000   -1.838103846     0.353600000     0.000003846      0    0    0 #  cp/C
  14    1   1    0.000000   -0.613603846    -0.354100000     0.000003846      0    0    0 #  cp/C
  15    1   1   -0.126800   -1.819103846     1.754800000     0.000203846      0    0    0 #  cp/C
  16    1   1   -0.126800   -0.608803846     2.453200000     0.000203846      0    0    0 #  cp/C
  17    1   2    0.126800    3.996696154     2.306000000     0.000103846      0    0    0 #  hc/H
  18    1   2    0.126800    1.844296154     3.554900000     0.000203846      0    0    0 #  hc/H
  19    1   2    0.126800    4.000596154    -0.182400000    -0.000196154      0    0    0 #  hc/H
  20    1   2    0.126800    2.767996154    -2.311500000     0.000003846      0    0    0 #  hc/H
  21    1   2    0.126800    0.615796154    -3.553100000    -0.000096154      0    0    0 #  hc/H
  22    1   2    0.126800   -1.844403846    -3.554900000    -0.000196154      0    0    0 #  hc/H
  23    1   2    0.126800   -3.996703846    -2.306000000    -0.000296154      0    0    0 #  hc/H
  24    1   2    0.126800   -4.000603846     0.182400000    -0.000096154      0    0    0 #  hc/H
  25    1   2    0.126800   -2.767903846     2.311400000     0.000303846      0    0    0 #  hc/H
  26    1   2    0.126800   -0.615803846     3.553200000     0.000203846      0    0    0 #  hc/H

Bonds

  1   1     1     2  
  2   1     1     6  
  3   2     1    17  
  4   1     2     3  
  5   2     2    18  
  6   1     3     4  
  7   1     3    16  
  8   1     4     5  
  9   1     4    14  
 10   1     5     6  
 11   1     5     7  
 12   2     6    19  
 13   1     7     8  
 14   2     7    20  
 15   1     8     9  
 16   2     8    21  
 17   1     9    10  
 18   1     9    14  
 19   1    10    11  
 20   2    10    22  
 21   1    11    12  
 22   2    11    23  
 23   1    12    13  
 24   2    12    24  
 25   1    13    14  
 26   1    13    15  
 27   1    15    16  
 28   2    15    25  
 29   2    16    26  

Angles

  1   1     2     1     6  
  2   2     6     1    17  
  3   2     2     1    17  
  4   2     3     2    18  
  5   1     1     2     3  
  6   2     1     2    18  
  7   1     4     3    16  
  8   1     2     3     4  
  9   1     2     3    16  
 10   1     5     4    14  
 11   1     3     4     5  
 12   1     3     4    14  
 13   1     4     5     6  
 14   1     6     5     7  
 15   1     4     5     7  
 16   1     1     6     5  
 17   2     5     6    19  
 18   2     1     6    19  
 19   2     8     7    20  
 20   1     5     7     8  
 21   2     5     7    20  
 22   2     9     8    21  
 23   1     7     8     9  
 24   2     7     8    21  
 25   1     8     9    14  
 26   1    10     9    14  
 27   1     8     9    10  
 28   2     9    10    22  
 29   2    11    10    22  
 30   1     9    10    11  
 31   1    10    11    12  
 32   2    12    11    23  
 33   2    10    11    23  
 34   1    11    12    13  
 35   2    11    12    24  
 36   2    13    12    24  
 37   1    12    13    15  
 38   1    14    13    15  
 39   1    12    13    14  
 40   1     9    14    13  
 41   1     4    14    13  
 42   1     4    14     9  
 43   1    13    15    16  
 44   2    13    15    25  
 45   2    16    15    25  
 46   1     3    16    15  
 47   2     3    16    26  
 48   2    15    16    26  

Dihedrals

  1   3     2     1     6    19  
  2   2    17     1     2    18  
  3   1     2     1     6     5  
  4   3     6     1     2    18  
  5   2    17     1     6    19  
  6   1     3     2     1     6  
  7   1     1     2     3     4  
  8   1     1     2     3    16  
  9   3     3     2     1    17  
 10   3     2     3    16    26  
 11   1     4     3    16    15  
 12   3    16     3     2    18  
 13   1     2     3     4     5  
 14   1     2     3     4    14  
 15   3     4     3    16    26  
 16   3     4     3     2    18  
 17   1     2     3    16    15  
 18   1     5     4     3    16  
 19   1     5     4    14    13  
 20   1    14     4     3    16  
 21   1     3     4    14     9  
 22   1     3     4     5     6  
 23   1     5     4    14     9  
 24   1     3     4     5     7  
 25   1     3     4    14    13  
 26   3     4     5     6    19  
 27   1     4     5     7     8  
 28   3     4     5     7    20  
 29   1     6     5     7     8  
 30   3     6     5     7    20  
 31   1     7     5     4    14  
 32   1     6     5     4    14  
 33   3     7     5     6    19  
 34   1     1     6     5     4  
 35   1     1     6     5     7  
 36   3     5     6     1    17  
 37   1     5     7     8     9  
 38   3     5     7     8    21  
 39   2    20     7     8    21  
 40   1     7     8     9    14  
 41   1     7     8     9    10  
 42   3     9     8     7    20  
 43   3    10     9     8    21  
 44   1     8     9    10    11  
 45   1    10     9    14    13  
 46   3    14     9    10    22  
 47   3     8     9    10    22  
 48   3    14     9     8    21  
 49   1     8     9    14    13  
 50   1     9    10    11    12  
 51   1    11    10     9    14  
 52   3     9    10    11    23  
 53   2    22    10    11    23  
 54   3    12    11    10    22  
 55   1    10    11    12    13  
 56   3    10    11    12    24  
 57   2    23    11    12    24  
 58   1    11    12    13    15  
 59   3    13    12    11    23  
 60   1    11    12    13    14  
 61   3    14    13    12    24  
 62   3    15    13    12    24  
 63   1    14    13    15    16  
 64   1    12    13    15    16  
 65   3    14    13    15    25  
 66   3    12    13    15    25  
 67   1     4    14    13    15  
 68   1     4    14     9     8  
 69   1     4    14     9    10  
 70   1     4    14    13    12  
 71   1     9    14    13    12  
 72   1     9    14    13    15  
 73   3    13    15    16    26  
 74   2    25    15    16    26  
 75   1     3    16    15    13  
 76   3     3    16    15    25  

Impropers

  1   2     2     1     6    17  
  2   2     1     2     3    18  
  3   1     2     3     4    16  
  4   1     3     4     5    14  
  5   1     4     5     6     7  
  6   2     1     6     5    19  
  7   2     5     7     8    20  
  8   2     7     8     9    21  
  9   1     8     9    10    14  
 10   2     9    10    11    22  
 11   2    10    11    12    23  
 12   2    11    12    13    24  
 13   1    12    13    14    15  
 14   1     4    14     9    13  
 15   2    13    15    16    25  
 16   2     3    16    15    26  
